 Gaussian 09, Revision D.01,
 Gaussian 09:  ES64L-G09RevD.01 24-Apr-2013

 ----------------------------------------------------------------------
 # opt freq b3lyp/aug-cc-pvtz EmpiricalDispersion=GD3 geom=connectivity
 ----------------------------------------------------------------------

 -------------------
 Title Card Required
 -------------------
 Symbolic Z-matrix:
 Charge =  0 Multiplicity = 1

 SCF Done:  E(RB3LYP) =  -307.800854411     A.U. after   11 cycles
 SCF Done:  E(RB3LYP) =  -307.801162426     A.U. after   10 cycles
 SCF Done:  E(RB3LYP) =  -307.801230823     A.U. after    9 cycles
 SCF Done:  E(RB3LYP) =  -307.801296513     A.U. after    8 cycles
 SCF Done:  E(RB3LYP) =  -307.801373811     A.U. after    9 cycles
 SCF Done:  E(RB3LYP) =  -307.801433598     A.U. after    9 cycles
 SCF Done:  E(RB3LYP) =  -307.801472755     A.U. after    9 cycles
 SCF Done:  E(RB3LYP) =  -307.801494912     A.U. after    9 cycles
 SCF Done:  E(RB3LYP) =  -307.801505103     A.U. after    9 cycles
 SCF Done:  E(RB3LYP) =  -307.801511015     A.U. after    8 cycles
 SCF Done:  E(RB3LYP) =  -307.801533597     A.U. after    9 cycles
 SCF Done:  E(RB3LYP) =  -307.801535810     A.U. after    9 cycles
 SCF Done:  E(RB3LYP) =  -307.801536323     A.U. after    7 cycles
 SCF Done:  E(RB3LYP) =  -307.801536617     A.U. after    7 cycles
 SCF Done:  E(RB3LYP) =  -307.801536862     A.U. after    7 cycles
 SCF Done:  E(RB3LYP) =  -307.801536955     A.U. after    7 cycles
 SCF Done:  E(RB3LYP) =  -307.801537067     A.U. after    7 cycles
 SCF Done:  E(RB3LYP) =  -307.801537295     A.U. after    7 cycles
 SCF Done:  E(RB3LYP) =  -307.801537473     A.U. after    7 cycles
 Optimization completed.
    -- Stationary point found.

 1\1\GINC-NODE103\FOpt\RB3LYP\Aug-CC-pVTZ\C4H8O2\KAESER\30-Sep-2021\0\\
 # opt freq b3lyp/aug-cc-pvtz EmpiricalDispersion=GD3 geom=connectivity
 \\Title Card Required\\0,1\C,-1.7906026818,-0.649137082,-0.0415261173\
 C,-1.8488903339,0.9079153141,-0.0994679491\C,-0.3034308646,0.983915213
 8,0.0815307773\C,-0.2688409435,-0.5380573113,-0.0052988255\H,-2.193605
 7548,-1.0899056157,0.8717027727\H,-2.185738518,-1.2011655756,-0.894170
 6183\H,-2.4298450053,1.3752846368,0.6909856066\H,-2.1892279287,1.28887
 97169,-1.0592429255\H,0.0336038221,1.346555871,1.053519097\H,0.2815123

 Normal termination of Gaussian 09 at Thu Sep 30 20:38:54 2021.

 ----------------------------------------------------------------------
 #N Geom=AllCheck Guess=TCheck SCRF=Check GenChk RB3LYP/Aug-CC-pVTZ Fre
 q
 ----------------------------------------------------------------------

 Structure from the checkpoint file:  "1191-95-3.chk"
 -------------------
 Title Card Required
 -------------------
 Charge =  0 Multiplicity = 1

                         Standard orientation:
 ---------------------------------------------------------------------
 Center     Atomic      Atomic             Coordinates (Angstroms)
 Number     Number       Type             X           Y           Z
 ---------------------------------------------------------------------
      1          6           0       -1.776820    0.667759    0.003373
      2          6           0       -1.843778   -0.887601    0.090209
      3          6           0       -0.300213   -0.976147   -0.100960
      4          6           0       -0.256054    0.546921   -0.042234
      5          1           0       -2.184175    1.094205   -0.914713
      6          1           0       -2.162217    1.237604    0.848722
      7          1           0       -2.433458   -1.365820   -0.687187
      8          1           0       -2.179026   -1.248951    1.059315
      9          1           0        0.027287   -1.358468   -1.068656
     10          1           0        0.287538   -1.475191    0.668183
     11          8           0        0.638545    1.350373    0.002703
     12          8           0        2.825531   -0.490784    0.036598
     13          1           0        2.263028    0.301194    0.022524
     14          1           0        3.729606   -0.166875    0.055074
 ---------------------------------------------------------------------

 SCF Done:  E(RB3LYP) =  -307.801537473     A.U. after    1 cycles

 The electronic state is 1-A.
 Alpha  occ. eigenvalues --  -19.14566 -19.11085 -10.27965 -10.19474 -10.19331
 Alpha  occ. eigenvalues --  -10.18886  -1.06962  -0.99148  -0.85958  -0.69625
 Alpha  occ. eigenvalues --   -0.64479  -0.54318  -0.51800  -0.50475  -0.48722
 Alpha  occ. eigenvalues --   -0.44847  -0.41671  -0.40888  -0.37552  -0.36862
 Alpha  occ. eigenvalues --   -0.35306  -0.35208  -0.29895  -0.27015
 Alpha virt. eigenvalues --   -0.04667  -0.01549  -0.00302   0.00577   0.00951
 Alpha virt. eigenvalues --    0.01987   0.03458   0.03753   0.04074   0.04825
 Alpha virt. eigenvalues --    0.05739   0.06890   0.07502   0.07814   0.08377

 Mulliken charges:
               1
     1  C   -0.359502
     2  C   -0.410681
     3  C   -0.332423
     4  C    0.558818
     5  H    0.199394
     6  H    0.233073
     7  H    0.218098
     8  H    0.164868
     9  H    0.226362
    10  H    0.253046
    11  O   -0.752673
    12  O   -0.435572
    13  H    0.307117
    14  H    0.130077
 Sum of Mulliken charges =   0.00000

 Dipole moment (field-independent basis, Debye):
    X=             -2.3357    Y=             -0.3609    Z=             -0.1182  Tot=              2.3663
 Quadrupole moment (field-independent basis, Debye-Ang):
   XX=            -33.0904   YY=            -40.6797   ZZ=            -36.3369
   XY=              1.9045   XZ=              0.2193   YZ=              0.0614

  Exact polarizability:  71.523   1.367  61.876  -0.324   0.409  48.182
 Approx polarizability:  90.834   4.605  87.103   0.033   0.747  69.814

                      1                      2                      3
                      A                      A                      A
 Frequencies --     28.4621                54.3395                73.9064
 Red. masses --      2.6501                 2.1524                 5.3275
 Frc consts  --      0.0013                 0.0037                 0.0171
 IR Inten    --      0.2668                 1.1016                13.6676

                      4                      5                      6
                      A                      A                      A
 Frequencies --    129.9163               164.0226               383.5186
 Red. masses --      1.0945                 6.1274                 1.0791
 Frc consts  --      0.0109                 0.0971                 0.0935
 IR Inten    --    120.1628                 4.9083               157.9450

                      7                      8                      9
                      A                      A                      A
 Frequencies --    402.0268               475.8948               554.2751
 Red. masses --      2.0251                 4.1631                 1.0558
 Frc consts  --      0.1928                 0.5555                 0.1911
 IR Inten    --      1.8154                 1.1902                64.1835

                     10                     11                     12
                      A                      A                      A
 Frequencies --    625.5079               679.4792               744.1417
 Red. masses --      1.2345                 4.9576                 1.1552
 Frc consts  --      0.2846                 1.3486                 0.3769
 IR Inten    --      2.1257                 3.6362                 3.5178

                     13                     14                     15
                      A                      A                      A
 Frequencies --    846.9891               914.2136               952.1799
 Red. masses --      2.8537                 3.1183                 1.0203
 Frc consts  --      1.2062                 1.5355                 0.5450
 IR Inten    --      2.9518                 0.2370                 0.1106

                     16                     17                     18
                      A                      A                      A
 Frequencies --    965.6102              1100.4984              1102.2185
 Red. masses --      3.7088                 2.5159                 4.3628
 Frc consts  --      2.0375                 1.7952                 3.1228
 IR Inten    --      2.3760                 4.7267                66.4494

                     19                     20                     21
                      A                      A                      A
 Frequencies --   1191.3711              1221.8080              1223.3322
 Red. masses --      1.3607                 1.2314                 1.1256
 Frc consts  --      1.1379                 1.0831                 0.9925
 IR Inten    --      1.1509                 0.3694                 0.5396

                     22                     23                     24
                      A                      A                      A
 Frequencies --   1243.2181              1274.3432              1424.2479
 Red. masses --      1.5797                 1.5839                 1.0829
 Frc consts  --      1.4386                 1.5155                 1.2942
 IR Inten    --      3.7424                 6.2555                24.9092

                     25                     26                     27
                      A                      A                      A
 Frequencies --   1439.8576              1501.3284              1651.2633
 Red. masses --      1.0940                 1.1000                 1.0790
 Frc consts  --      1.3363                 1.4608                 1.7335
 IR Inten    --      1.1826                 0.4722               105.7927

                     28                     29                     30
                      A                      A                      A
 Frequencies --   1830.1559              3049.5611              3060.0807
 Red. masses --     12.0356                 1.0589                 1.0612
 Frc consts  --     23.7517                 5.8021                 5.8551
 IR Inten    --    344.1336                 8.4854                 5.5190

                     31                     32                     33
                      A                      A                      A
 Frequencies --   3079.1644              3096.3462              3107.1443
 Red. masses --      1.0606                 1.1056                 1.1036
 Frc consts  --      5.9247                 6.2455                 6.2775
 IR Inten    --     23.6459                 2.5043                 0.5319

                     34                     35                     36
                      A                      A                      A
 Frequencies --   3131.0024              3635.0847              3870.9877
 Red. masses --      1.1083                 1.0578                 1.0710
 Frc consts  --      6.4016                 8.2350                 9.4558
 IR Inten    --     19.9530               384.6850                83.7721

 - Thermochemistry -
 -------------------
 Temperature   298.150 Kelvin.  Pressure   1.00000 Atm.
 Atom     1 has atomic number  6 and mass  12.00000

 Molecular mass:    88.05243 amu.
 Principal axes and moments of inertia in atomic units:
                           1         2         3
     Eigenvalues --   279.13325 925.878301168.99130
           X            0.99999   0.00363  -0.00021
           Y           -0.00363   0.99999   0.00188
           Z            0.00021  -0.00188   1.00000
 This molecule is an asymmetric top.
 Rotational symmetry number  1.
 Rotational temperatures (Kelvin)      0.31030     0.09355     0.07409
 Rotational constants (GHZ):           6.46552     1.94922     1.54384
 Zero-point vibrational energy     300427.2 (Joules/Mol)
                                   71.80381 (Kcal/Mol)
 Warning -- explicit consideration of   9 degrees of freedom as
           vibrations may cause significant error
 Vibrational temperatures:     40.95    78.18   106.33   186.92   235.99
          (Kelvin)            551.80   578.43   684.71   797.48   899.97
                              977.62  1070.65  1218.63  1315.35  1369.97
                             1389.30  1583.37  1585.84  1714.12  1757.91
                             1760.10  1788.71  1833.49  2049.17  2071.63
                             2160.07  2375.80  2633.18  4387.63  4402.77
                             4430.23  4454.95  4470.48  4504.81  5230.07
                             5569.48

 Zero-point correction=                           0.114427 (Hartree/Particle)
 Thermal correction to Energy=                    0.122826
 Thermal correction to Enthalpy=                  0.123770
 Thermal correction to Gibbs Free Energy=         0.080179
 Sum of electronic and zero-point Energies=           -307.687111
 Sum of electronic and thermal Energies=              -307.678712
 Sum of electronic and thermal Enthalpies=            -307.677768
 Sum of electronic and thermal Free Energies=         -307.721359

                     E (Thermal)             CV                S
                      KCal/Mol        Cal/Mol-Kelvin    Cal/Mol-Kelvin
 Total                   77.074             27.424             91.745
 Electronic               0.000              0.000              0.000
 Translational            0.889              2.981             39.339
 Rotational               0.889              2.981             27.204
 Vibrational             75.297             21.462             25.202
 Vibration     1          0.593              1.984              5.934
 Vibration     2          0.596              1.976              4.653
 Vibration     3          0.599              1.966              4.047
 Vibration     4          0.612              1.923              2.947
 Vibration     5          0.623              1.887              2.503
 Vibration     6          0.753              1.505              1.025
 Vibration     7          0.768              1.466              0.955
 Vibration     8          0.833              1.304              0.721
 Vibration     9          0.910              1.130              0.535

 1\1\GINC-NODE103\Freq\RB3LYP\Aug-CC-pVTZ\C4H8O2\KAESER\30-Sep-2021\0\\
 #N Geom=AllCheck Guess=TCheck SCRF=Check GenChk RB3LYP/Aug-CC-pVTZ Fre
 q\\Title Card Required\\0,1\C,-1.7906026818,-0.649137082,-0.0415261173
 \C,-1.8488903339,0.9079153141,-0.0994679491\C,-0.3034308646,0.98391521
 38,0.0815307773\C,-0.2688409435,-0.5380573113,-0.0052988255\H,-2.19360
 57548,-1.0899056157,0.8717027727\H,-2.185738518,-1.2011655756,-0.89417
 06183\H,-2.4298450053,1.3752846368,0.6909856066\H,-2.1892279287,1.2888
 797169,-1.0592429255\H,0.0336038221,1.346555871,1.053519097\H,0.281512

 Normal termination of Gaussian 09 at Thu Sep 30 22:43:38 2021.
