 Gaussian 09, Revision D.01,
 Gaussian 09:  ES64L-G09RevD.01 24-Apr-2013

 ----------------------------------------------------------------------
 # opt freq b3lyp/aug-cc-pvtz EmpiricalDispersion=GD3 geom=connectivity
 ----------------------------------------------------------------------

 -------------------
 Title Card Required
 -------------------
 Symbolic Z-matrix:
 Charge =  0 Multiplicity = 1

 SCF Done:  E(RB3LYP) =  -614.005785264     A.U. after   21 cycles
 SCF Done:  E(RB3LYP) =  -614.006034737     A.U. after   38 cycles
 SCF Done:  E(RB3LYP) =  -614.006066672     A.U. after   21 cycles
 SCF Done:  E(RB3LYP) =  -614.006107423     A.U. after   22 cycles
 SCF Done:  E(RB3LYP) =  -614.006136702     A.U. after   66 cycles
 SCF Done:  E(RB3LYP) =  -614.006173882     A.U. after   20 cycles
 SCF Done:  E(RB3LYP) =  -614.006217749     A.U. after   46 cycles
 SCF Done:  E(RB3LYP) =  -614.006262488     A.U. after   32 cycles
 SCF Done:  E(RB3LYP) =  -614.006276024     A.U. after  103 cycles
 SCF Done:  E(RB3LYP) =  -614.006279394     A.U. after   37 cycles
 SCF Done:  E(RB3LYP) =  -614.006297291     A.U. after   27 cycles
 SCF Done:  E(RB3LYP) =  -614.006302731     A.U. after   41 cycles
 SCF Done:  E(RB3LYP) =  -614.006303224     A.U. after   18 cycles
 SCF Done:  E(RB3LYP) =  -614.006303297     A.U. after  128 cycles
 SCF Done:  E(RB3LYP) =  -614.006303339     A.U. after   14 cycles
 SCF Done:  E(RB3LYP) =  -614.006303399     A.U. after   87 cycles
 SCF Done:  E(RB3LYP) =  -614.006303459     A.U. after   39 cycles
 SCF Done:  E(RB3LYP) =  -614.006303569     A.U. after   25 cycles
 SCF Done:  E(RB3LYP) =  -614.006303587     A.U. after   25 cycles
 Optimization completed.
    -- Stationary point found.
 Normal termination of Gaussian 09 at Sun Oct  3 00:00:36 2021.

 ----------------------------------------------------------------------
 #N Geom=AllCheck Guess=TCheck SCRF=Check GenChk RB3LYP/Aug-CC-pVTZ Fre
 q
 ----------------------------------------------------------------------

 Structure from the checkpoint file:  "132-64-9.chk"
 -------------------
 Title Card Required
 -------------------
 Charge =  0 Multiplicity = 1

                         Standard orientation:
 ---------------------------------------------------------------------
 Center     Atomic      Atomic             Coordinates (Angstroms)
 Number     Number       Type             X           Y           Z
 ---------------------------------------------------------------------
      1          6           0       -2.549875   -2.135784    0.014738
      2          6           0       -3.172264   -0.882178   -0.017730
      3          6           0       -2.432023    0.295872   -0.038228
      4          6           0       -1.058362    0.153682   -0.024590
      5          6           0       -0.403082   -1.083469    0.006998
      6          6           0       -1.166174   -2.249731    0.027247
      7          1           0       -3.159526   -3.028620    0.029558
      8          1           0       -4.251982   -0.825733   -0.027986
      9          1           0       -2.891052    1.273589   -0.063549
     10          1           0       -0.691362   -3.220968    0.051585
     11          6           0        1.098509    0.620296   -0.022854
     12          6           0        2.294764    1.309970   -0.034239
     13          6           0        3.455846    0.543179   -0.011231
     14          6           0        3.403316   -0.854737    0.021094
     15          6           0        2.187659   -1.526252    0.030751
     16          6           0        1.012263   -0.778091    0.008394
     17          1           0        2.321595    2.389545   -0.062451
     18          1           0        4.416490    1.039230   -0.019718
     19          1           0        4.325768   -1.418359    0.037807
     20          1           0        2.153737   -2.606824    0.054350
     21          8           0       -0.152619    1.197497   -0.041529
     22          8           0       -1.787663    3.641776   -0.022429
     23          1           0       -1.660348    4.205423    0.745392
     24          1           0       -1.064524    3.001996    0.004571
 ---------------------------------------------------------------------

 SCF Done:  E(RB3LYP) =  -614.006303587     A.U. after    7 cycles

 The electronic state is 1-A.
 Alpha  occ. eigenvalues --  -19.20584 -19.12394 -10.24829 -10.24546 -10.19829
 Alpha  occ. eigenvalues --  -10.19661 -10.19412 -10.19394 -10.19250 -10.19175
 Alpha  occ. eigenvalues --  -10.18881 -10.18740 -10.18724 -10.18465  -1.12079
 Alpha  occ. eigenvalues --   -1.00562  -0.87787  -0.86976  -0.79952  -0.77462
 Alpha  occ. eigenvalues --   -0.75028  -0.73841  -0.66084  -0.63482  -0.60830
 Alpha  occ. eigenvalues --   -0.59616  -0.54279  -0.53613  -0.53022  -0.50462
 Alpha  occ. eigenvalues --   -0.47780  -0.47569  -0.46594  -0.45164  -0.44459
 Alpha  occ. eigenvalues --   -0.44022  -0.41950  -0.38640  -0.38407  -0.37958
 Alpha  occ. eigenvalues --   -0.37733  -0.36922  -0.36176  -0.35096  -0.31050
 Alpha  occ. eigenvalues --   -0.30233  -0.27477  -0.24388  -0.23706
 Alpha virt. eigenvalues --   -0.05450  -0.01816  -0.01535  -0.01166  -0.00789
 Alpha virt. eigenvalues --   -0.00498   0.00758   0.01268   0.01364   0.02027
 Alpha virt. eigenvalues --    0.02812   0.03080   0.03296   0.04434   0.04581

 Mulliken charges:
               1
     1  C   -0.355258
     2  C   -0.289950
     3  C   -0.668765
     4  C    0.625092
     5  C    0.768787
     6  C   -1.058386
     7  H    0.506862
     8  H    0.358809
     9  H    0.485218
    10  H    0.119263
    11  C    0.234671
    12  C   -0.542518
    13  C   -0.213295
    14  C   -0.343787
    15  C   -1.103292
    16  C    0.723151
    17  H    0.396114
    18  H    0.349257
    19  H    0.519551
    20  H    0.108556
    21  O   -0.636299
    22  O   -0.444834
    23  H    0.125039
    24  H    0.336015
 Sum of Mulliken charges =   0.00000

 Dipole moment (field-independent basis, Debye):
    X=              1.4839    Y=             -1.2821    Z=              1.1930  Tot=              2.2955
 Quadrupole moment (field-independent basis, Debye-Ang):
   XX=            -75.1305   YY=            -76.2713   ZZ=            -86.1678
   XY=              5.2117   XZ=             -1.9626   YZ=              5.4669

  Exact polarizability: 227.955  13.645 162.902   0.287  -0.785  84.460
 Approx polarizability: 346.483  14.364 279.754   1.156  -2.056 135.276

                      1                      2                      3
                      A                      A                      A
 Frequencies --     20.1384                50.7468                93.1392
 Red. masses --      4.0892                 7.7001                 1.3545
 Frc consts  --      0.0010                 0.0117                 0.0069
 IR Inten    --      6.9789                19.6761                69.4623

                      4                      5                      6
                      A                      A                      A
 Frequencies --    105.3808               120.6572               152.8286
 Red. masses --      4.6124                 3.5145                 3.6163
 Frc consts  --      0.0302                 0.0301                 0.0498
 IR Inten    --      3.9691                11.3419                 0.6516

                      7                      8                      9
                      A                      A                      A
 Frequencies --    223.3646               264.3364               293.0319
 Red. masses --      4.5699                 1.0827                 4.6823
 Frc consts  --      0.1343                 0.0446                 0.2369
 IR Inten    --      3.2965                90.5447                 0.8802

                     10                     11                     12
                      A                      A                      A
 Frequencies --    319.2133               431.2889               434.2262
 Red. masses --      5.2208                 6.1280                 3.0693
 Frc consts  --      0.3134                 0.6716                 0.3410
 IR Inten    --      4.6069                 7.1064                 5.6317

                     13                     14                     15
                      A                      A                      A
 Frequencies --    452.0926               482.8980               530.4412
 Red. masses --      2.9597                 1.0936                 4.1476
 Frc consts  --      0.3564                 0.1503                 0.6876
 IR Inten    --      0.0329               111.2416                 4.5258

                     16                     17                     18
                      A                      A                      A
 Frequencies --    572.9358               574.9803               589.2432
 Red. masses --      7.6742                 3.9036                 3.5274
 Frc consts  --      1.4842                 0.7604                 0.7216
 IR Inten    --      6.4462                 2.7420                 0.0235

                     19                     20                     21
                      A                      A                      A
 Frequencies --    630.0968               675.1899               749.7072
 Red. masses --      6.9660                 7.2965                 2.1907
 Frc consts  --      1.6295                 1.9598                 0.7255
 IR Inten    --      5.7800                 3.0603                48.5083

                     22                     23                     24
                      A                      A                      A
 Frequencies --    761.6372               765.5557               774.4165
 Red. masses --      5.4073                 1.4163                 1.7164
 Frc consts  --      1.8481                 0.4890                 0.6065
 IR Inten    --      0.1624                 0.1416                90.1330

                     25                     26                     27
                      A                      A                      A
 Frequencies --    799.9203               860.3491               867.7247
 Red. masses --      2.7106                 6.6100                 7.1213
 Frc consts  --      1.0219                 2.8827                 3.1592
 IR Inten    --      0.9800                24.9647                13.7889

                     28                     29                     30
                      A                      A                      A
 Frequencies --    878.3737               889.7275               959.2106
 Red. masses --      1.4298                 1.5468                 1.3849
 Frc consts  --      0.6500                 0.7214                 0.7508
 IR Inten    --      0.6940                 0.4574                 2.0236

                     31                     32                     33
                      A                      A                      A
 Frequencies --    967.5968              1000.6106              1005.8701
 Red. masses --      1.3768                 1.3077                 1.3016
 Frc consts  --      0.7595                 0.7714                 0.7759
 IR Inten    --      1.9711                 0.0002                 0.1610

                     34                     35                     36
                      A                      A                      A
 Frequencies --   1023.6275              1034.7919              1047.5625
 Red. masses --      4.7995                 2.1257                 2.1895
 Frc consts  --      2.9630                 1.3411                 1.4156
 IR Inten    --      3.9606                 1.2393                 9.9190

                     37                     38                     39
                      A                      A                      A
 Frequencies --   1126.7244              1137.0526              1180.6103
 Red. masses --      1.9247                 1.6289                 1.1910
 Frc consts  --      1.4396                 1.2408                 0.9780
 IR Inten    --      7.4382                19.8707                 4.4100

                     40                     41                     42
                      A                      A                      A
 Frequencies --   1185.3033              1209.2629              1222.3770
 Red. masses --      1.2851                 2.4525                 2.4245
 Frc consts  --      1.0638                 2.1130                 2.1344
 IR Inten    --     14.0447               128.2147                 1.3677

                     43                     44                     45
                      A                      A                      A
 Frequencies --   1259.2153              1314.4283              1336.6905
 Red. masses --      3.7191                 1.5876                 1.7638
 Frc consts  --      3.4745                 1.6161                 1.8568
 IR Inten    --     20.6780                 5.1341                 1.9849

                     46                     47                     48
                      A                      A                      A
 Frequencies --   1353.8901              1385.1697              1473.1289
 Red. masses --      5.4177                 4.1534                 2.4596
 Frc consts  --      5.8511                 4.6952                 3.1449
 IR Inten    --      8.2108                 4.7546                42.0793

                     49                     50                     51
                      A                      A                      A
 Frequencies --   1488.9681              1505.7782              1522.6008
 Red. masses --      2.2254                 2.5655                 2.9034
 Frc consts  --      2.9069                 3.4272                 3.9658
 IR Inten    --     32.4218                26.6717                 0.7288

                     52                     53                     54
                      A                      A                      A
 Frequencies --   1620.6726              1630.1699              1637.6045
 Red. masses --      6.6148                 5.8335                 2.8437
 Frc consts  --     10.2366                 9.1336                 4.4932
 IR Inten    --      5.8273                 1.0154                 5.0169

                     55                     56                     57
                      A                      A                      A
 Frequencies --   1639.8046              1666.4698              3169.2246
 Red. masses --      1.4121                 7.1110                 1.0863
 Frc consts  --      2.2372                11.6352                 6.4285
 IR Inten    --     40.1689                 1.9641                 1.3707

                     58                     59                     60
                      A                      A                      A
 Frequencies --   3170.1974              3180.3186              3181.3072
 Red. masses --      1.0863                 1.0899                 1.0901
 Frc consts  --      6.4322                 6.4952                 6.5002
 IR Inten    --      0.5223                 6.3559                 7.6641

                     61                     62                     63
                      A                      A                      A
 Frequencies --   3191.5308              3192.0643              3201.2451
 Red. masses --      1.0943                 1.0945                 1.0959
 Frc consts  --      6.5673                 6.5708                 6.6167
 IR Inten    --     14.8481                13.6842                 6.8918

                     64                     65                     66
                      A                      A                      A
 Frequencies --   3203.4914              3742.5925              3876.8406
 Red. masses --      1.0956                 1.0504                 1.0771
 Frc consts  --      6.6247                 8.6687                 9.5377
 IR Inten    --      4.8663               214.2856               144.1601

 - Thermochemistry -
 -------------------
 Temperature   298.150 Kelvin.  Pressure   1.00000 Atm.
 Atom     1 has atomic number  6 and mass  12.00000

 Molecular mass:   186.06808 amu.
 Principal axes and moments of inertia in atomic units:
                           1         2         3
     Eigenvalues --  1833.283873117.783724946.23298
           X            1.00000  -0.00055  -0.00116
           Y            0.00055   0.99999   0.00479
           Z            0.00116  -0.00479   0.99999
 This molecule is an asymmetric top.
 Rotational symmetry number  1.
 Warning -- assumption of classical behavior for rotation
           may cause significant error
 Rotational temperatures (Kelvin)      0.04725     0.02778     0.01751
 Rotational constants (GHZ):           0.98443     0.57885     0.36487
 Zero-point vibrational energy     492907.2 (Joules/Mol)
                                  117.80764 (Kcal/Mol)
 Warning -- explicit consideration of  18 degrees of freedom as
           vibrations may cause significant error
 Vibrational temperatures:     28.97    73.01   134.01   151.62   173.60
          (Kelvin)            219.89   321.37   380.32   421.61   459.28
                              620.53   624.75   650.46   694.78   763.19
                              824.33   827.27   847.79   906.57   971.45
                             1078.66  1095.82  1101.46  1114.21  1150.91
                             1237.85  1248.46  1263.78  1280.12  1380.09
                             1392.15  1439.65  1447.22  1472.77  1488.83
                             1507.21  1621.10  1635.96  1698.63  1705.38
                             1739.86  1758.73  1811.73  1891.17  1923.20
                             1947.94  1992.95  2119.50  2142.29  2166.48
                             2190.68  2331.78  2345.45  2356.14  2359.31
                             2397.68  4559.80  4561.20  4575.76  4577.19
                             4591.90  4592.66  4605.87  4609.10  5384.75
                             5577.90

 Zero-point correction=                           0.187738 (Hartree/Particle)
 Thermal correction to Energy=                    0.200095
 Thermal correction to Enthalpy=                  0.201039
 Thermal correction to Gibbs Free Energy=         0.147546
 Sum of electronic and zero-point Energies=           -613.818565
 Sum of electronic and thermal Energies=              -613.806209
 Sum of electronic and thermal Enthalpies=            -613.805264
 Sum of electronic and thermal Free Energies=         -613.858758

                     E (Thermal)             CV                S
                      KCal/Mol        Cal/Mol-Kelvin    Cal/Mol-Kelvin
 Total                  125.561             47.021            112.586
 Electronic               0.000              0.000              0.000
 Translational            0.889              2.981             41.569
 Rotational               0.889              2.981             31.714
 Vibrational            123.784             41.060             39.303
 Vibration     1          0.593              1.986              6.621
 Vibration     2          0.595              1.977              4.788
 Vibration     3          0.602              1.954              3.593
 Vibration     4          0.605              1.945              3.352
 Vibration     5          0.609              1.932              3.090
 Vibration     6          0.619              1.900              2.637
 Vibration     7          0.649              1.805              1.932
 Vibration     8          0.671              1.738              1.633
 Vibration     9          0.688              1.687              1.456
 Vibration    10          0.705              1.637              1.314
 Vibration    11          0.792              1.402              0.854
 Vibration    12          0.795              1.396              0.845
 Vibration    13          0.811              1.356              0.789
 Vibration    14          0.839              1.288              0.702
 Vibration    15          0.885              1.183              0.586
 Vibration    16          0.929              1.090              0.499
 Vibration    17          0.931              1.085              0.495
 Vibration    18          0.947              1.055              0.469

 Optimization completed.
    -- Stationary point found.
 Normal termination of Gaussian 09 at Sun Oct  3 13:46:08 2021.
