 Gaussian 09, Revision D.01,
 Gaussian 09:  ES64L-G09RevD.01 24-Apr-2013

 ----------------------------------------------------------------------
 # opt freq b3lyp/aug-cc-pvtz EmpiricalDispersion=GD3 geom=connectivity
 ----------------------------------------------------------------------

 -------------------
 Title Card Required
 -------------------
 Symbolic Z-matrix:
 Charge =  0 Multiplicity = 2

 SCF Done:  E(UB3LYP) =  -286.288964119     A.U. after   13 cycles
 SCF Done:  E(UB3LYP) =  -286.289323152     A.U. after   12 cycles
 SCF Done:  E(UB3LYP) =  -286.289385274     A.U. after   10 cycles
 SCF Done:  E(UB3LYP) =  -286.289407176     A.U. after   10 cycles
 SCF Done:  E(UB3LYP) =  -286.289453867     A.U. after   11 cycles
 SCF Done:  E(UB3LYP) =  -286.289496814     A.U. after   11 cycles
 SCF Done:  E(UB3LYP) =  -286.289580076     A.U. after   12 cycles
 SCF Done:  E(UB3LYP) =  -286.289719244     A.U. after   13 cycles
 SCF Done:  E(UB3LYP) =  -286.284575871     A.U. after   14 cycles
 SCF Done:  E(UB3LYP) =  -286.289731373     A.U. after   10 cycles
 SCF Done:  E(UB3LYP) =  -286.289812866     A.U. after    9 cycles
 SCF Done:  E(UB3LYP) =  -286.289815464     A.U. after   10 cycles
 SCF Done:  E(UB3LYP) =  -286.289817590     A.U. after   10 cycles
 SCF Done:  E(UB3LYP) =  -286.289818631     A.U. after   10 cycles
 SCF Done:  E(UB3LYP) =  -286.289819334     A.U. after    9 cycles
 SCF Done:  E(UB3LYP) =  -286.289819617     A.U. after    9 cycles
 SCF Done:  E(UB3LYP) =  -286.289819797     A.U. after    8 cycles
 SCF Done:  E(UB3LYP) =  -286.289819920     A.U. after    8 cycles
 SCF Done:  E(UB3LYP) =  -286.289819996     A.U. after    8 cycles
 Optimization completed.
    -- Stationary point found.
 Normal termination of Gaussian 09 at Thu Sep 30 16:34:32 2021.

 ----------------------------------------------------------------------
 #N Geom=AllCheck Guess=TCheck SCRF=Check GenChk UB3LYP/Aug-CC-pVTZ Fre
 q
 ----------------------------------------------------------------------

 Structure from the checkpoint file:  "2406-25-9.chk"
 -------------------
 Title Card Required
 -------------------
 Charge =  0 Multiplicity = 2

                         Standard orientation:
 ---------------------------------------------------------------------
 Center     Atomic      Atomic             Coordinates (Angstroms)
 Number     Number       Type             X           Y           Z
 ---------------------------------------------------------------------
      1          8           0        0.084864   -1.005919    0.081065
      2          7           0       -0.738561   -0.049369   -0.136005
      3          6           0       -2.157967   -0.344369   -0.006264
      4          1           0       -2.738529    0.365716   -0.593382
      5          1           0       -2.325771   -1.355377   -0.365761
      6          1           0       -2.466565   -0.278558    1.042370
      7          6           0       -0.279856    1.325213    0.029165
      8          1           0        0.744224    1.395250   -0.325672
      9          1           0       -0.924514    1.993345   -0.539583
     10          1           0       -0.312528    1.608629    1.086180
     11          8           0        2.732053   -0.009635    0.011677
     12          1           0        1.893128   -0.503547    0.054717
     13          1           0        3.392078   -0.640511   -0.286177
 ---------------------------------------------------------------------

 SCF Done:  E(UB3LYP) =  -286.289819996     A.U. after    1 cycles

 The electronic state is 2-A.
 Alpha  occ. eigenvalues --  -19.15081 -19.10430 -14.43527 -10.22251 -10.21617
 Alpha  occ. eigenvalues --   -1.11786  -0.98502  -0.86024  -0.75358  -0.62654
 Alpha  occ. eigenvalues --   -0.52287  -0.51913  -0.50848  -0.49996  -0.42987
 Alpha  occ. eigenvalues --   -0.42756  -0.40959  -0.39354  -0.36692  -0.29386
 Alpha  occ. eigenvalues --   -0.28803  -0.21973
 Alpha virt. eigenvalues --   -0.01974   0.00204   0.00723   0.01182   0.02523
 Alpha virt. eigenvalues --    0.03084   0.03675   0.04292   0.05472   0.06620
 Alpha virt. eigenvalues --    0.07685   0.07969   0.08325   0.09158   0.09360

  Beta  occ. eigenvalues --  -19.13719 -19.10429 -14.42337 -10.22293 -10.21658
  Beta  occ. eigenvalues --   -1.09359  -0.98498  -0.84049  -0.75124  -0.61244
  Beta  occ. eigenvalues --   -0.51853  -0.50230  -0.49322  -0.48888  -0.42657
  Beta  occ. eigenvalues --   -0.42273  -0.40797  -0.36742  -0.33922  -0.29316
  Beta  occ. eigenvalues --   -0.27682
  Beta virt. eigenvalues --   -0.07892  -0.01904   0.00218   0.00735   0.01311
  Beta virt. eigenvalues --    0.02528   0.03184   0.03699   0.04328   0.05548
  Beta virt. eigenvalues --    0.06666   0.07774   0.08073   0.08383   0.09207

 Mulliken charges and spin densities:
               1          2
     1  O   -0.733161   0.495495
     2  N    0.470578   0.479487
     3  C   -0.684307  -0.028970
     4  H    0.278025   0.005182
     5  H    0.288145   0.007336
     6  H    0.249029   0.028858
     7  C   -0.699581  -0.026811
     8  H    0.360472   0.008393
     9  H    0.249145   0.005408
    10  H    0.247574   0.028125
    11  O   -0.435396  -0.000363
    12  H    0.280714  -0.002063
    13  H    0.128763  -0.000077
 Sum of Mulliken charges =   0.00000   1.00000

 Dipole moment (field-independent basis, Debye):
    X=             -3.2295    Y=              0.9116    Z=             -0.4964  Tot=              3.3922
 Quadrupole moment (field-independent basis, Debye-Ang):
   XX=            -29.1758   YY=            -31.6849   ZZ=            -32.6354
   XY=             -3.9996   XZ=             -1.7195   YZ=              0.5557

  Exact polarizability:  62.577  -2.978  54.318   0.040   0.023  43.014
 Approx polarizability:  74.334  -6.972  73.422   0.339  -0.402  58.910

                      1                      2                      3
                      A                      A                      A
 Frequencies --     34.3072                92.5188               107.9762
 Red. masses --      3.5956                 1.6766                 1.7275
 Frc consts  --      0.0025                 0.0085                 0.0119
 IR Inten    --      4.0621                69.8816                51.7076

                      4                      5                      6
                      A                      A                      A
 Frequencies --    139.8697               160.6183               176.0260
 Red. masses --      1.1138                 1.1488                 4.6238
 Frc consts  --      0.0128                 0.0175                 0.0844
 IR Inten    --      2.9584                 8.2583                11.1874

                      7                      8                      9
                      A                      A                      A
 Frequencies --    282.2605               415.0100               428.1392
 Red. masses --      3.4992                 1.1687                 1.9685
 Frc consts  --      0.1643                 0.1186                 0.2126
 IR Inten    --      1.7995               123.0125                 7.8831

                     10                     11                     12
                      A                      A                      A
 Frequencies --    533.7811               623.5707               809.9841
 Red. masses --      4.0477                 1.0576                 4.5060
 Frc consts  --      0.6795                 0.2423                 1.7418
 IR Inten    --     19.4884                83.2184                 8.0198

                     13                     14                     15
                      A                      A                      A
 Frequencies --   1022.3945              1073.7238              1136.7484
 Red. masses --      1.6728                 1.2148                 1.4587
 Frc consts  --      1.0302                 0.8252                 1.1106
 IR Inten    --      2.7854                 0.9201                10.0199

                     16                     17                     18
                      A                      A                      A
 Frequencies --   1156.3787              1272.6364              1415.8838
 Red. masses --      1.5649                 3.4427                 3.0872
 Frc consts  --      1.2330                 3.2852                 3.6465
 IR Inten    --      0.7056                 0.0328                32.9700

                     19                     20                     21
                      A                      A                      A
 Frequencies --   1432.4459              1456.3171              1472.5159
 Red. masses --      1.1676                 1.1757                 1.0463
 Frc consts  --      1.4115                 1.4691                 1.3366
 IR Inten    --      1.7459                 2.9744                 4.9848

                     22                     23                     24
                      A                      A                      A
 Frequencies --   1484.5319              1490.3383              1514.8861
 Red. masses --      1.0495                 1.0528                 1.2326
 Frc consts  --      1.3627                 1.3777                 1.6666
 IR Inten    --      5.1913                17.9414                 1.4428

                     25                     26                     27
                      A                      A                      A
 Frequencies --   1659.6158              2998.6540              3003.9161
 Red. masses --      1.0741                 1.0471                 1.0488
 Frc consts  --      1.7430                 5.5472                 5.5760
 IR Inten    --     60.4721                16.8003                41.1480

                     28                     29                     30
                      A                      A                      A
 Frequencies --   3085.2498              3090.3170              3144.5714
 Red. masses --      1.0875                 1.0858                 1.1027
 Frc consts  --      6.0991                 6.1096                 6.4244
 IR Inten    --      2.6563                33.6862                 4.2533

                     31                     32                     33
                      A                      A                      A
 Frequencies --   3148.8641              3579.6877              3869.8135
 Red. masses --      1.1042                 1.0595                 1.0695
 Frc consts  --      6.4508                 7.9993                 9.4369
 IR Inten    --      0.8929               573.3087                78.8613

 - Thermochemistry -
 -------------------
 Temperature   298.150 Kelvin.  Pressure   1.00000 Atm.
 Atom     1 has atomic number  8 and mass  15.99491

 Molecular mass:    78.05550 amu.
 Principal axes and moments of inertia in atomic units:
                           1         2         3
     Eigenvalues --   191.25473 797.73007 963.06888
           X            0.99994  -0.00980  -0.00487
           Y            0.00984   0.99992   0.00796
           Z            0.00480  -0.00801   0.99996
 This molecule is an asymmetric top.
 Rotational symmetry number  1.
 Rotational temperatures (Kelvin)      0.45287     0.10858     0.08994
 Rotational constants (GHZ):           9.43632     2.26235     1.87395
 Zero-point vibrational energy     282997.9 (Joules/Mol)
                                   67.63812 (Kcal/Mol)
 Warning -- explicit consideration of  10 degrees of freedom as
           vibrations may cause significant error
 Vibrational temperatures:     49.36   133.11   155.35   201.24   231.09
          (Kelvin)            253.26   406.11   597.11   616.00   767.99
                              897.18  1165.39  1471.00  1544.85  1635.53
                             1663.77  1831.04  2037.14  2060.97  2095.31
                             2118.62  2135.91  2144.26  2179.58  2387.81
                             4314.39  4321.96  4438.98  4446.27  4524.33
                             4530.51  5150.37  5567.79

 Zero-point correction=                           0.107788 (Hartree/Particle)
 Thermal correction to Energy=                    0.116445
 Thermal correction to Enthalpy=                  0.117389
 Thermal correction to Gibbs Free Energy=         0.073719
 Sum of electronic and zero-point Energies=           -286.182032
 Sum of electronic and thermal Energies=              -286.173375
 Sum of electronic and thermal Enthalpies=            -286.172431
 Sum of electronic and thermal Free Energies=         -286.216101

                     E (Thermal)             CV                S
                      KCal/Mol        Cal/Mol-Kelvin    Cal/Mol-Kelvin
 Total                   73.070             26.802             91.911
 Electronic               0.000              0.000              1.377
 Translational            0.889              2.981             38.980
 Rotational               0.889              2.981             26.488
 Vibrational             71.293             20.840             25.066
 Vibration     1          0.594              1.983              5.563
 Vibration     2          0.602              1.955              3.606
 Vibration     3          0.606              1.943              3.305
 Vibration     4          0.615              1.913              2.806
 Vibration     5          0.622              1.891              2.543
 Vibration     6          0.628              1.872              2.370
 Vibration     7          0.681              1.706              1.520
 Vibration     8          0.778              1.438              0.909
 Vibration     9          0.790              1.409              0.865
 Vibration    10          0.889              1.175              0.579

 Normal termination of Gaussian 09 at Thu Sep 30 17:11:57 2021.
