 Gaussian 09, Revision D.01,
 Gaussian 09:  ES64L-G09RevD.01 24-Apr-2013

 ----------------------------------------------------------------------
 # opt freq b3lyp/aug-cc-pvtz EmpiricalDispersion=GD3 geom=connectivity
 ----------------------------------------------------------------------

 -------------------
 Title Card Required
 -------------------
 Symbolic Z-matrix:
 Charge =  0 Multiplicity = 1

 SCF Done:  E(RB3LYP) =  -302.786214705     A.U. after   12 cycles
 SCF Done:  E(RB3LYP) =  -302.786456909     A.U. after   10 cycles
 SCF Done:  E(RB3LYP) =  -302.786564462     A.U. after    9 cycles
 SCF Done:  E(RB3LYP) =  -302.786785040     A.U. after   10 cycles
 SCF Done:  E(RB3LYP) =  -302.786880274     A.U. after   10 cycles
 SCF Done:  E(RB3LYP) =  -302.786968751     A.U. after   10 cycles
 SCF Done:  E(RB3LYP) =  -302.787007213     A.U. after    9 cycles
 SCF Done:  E(RB3LYP) =  -302.787020767     A.U. after    9 cycles
 SCF Done:  E(RB3LYP) =  -302.787032465     A.U. after    8 cycles
 SCF Done:  E(RB3LYP) =  -302.787046205     A.U. after    8 cycles
 SCF Done:  E(RB3LYP) =  -302.787100520     A.U. after    8 cycles
 SCF Done:  E(RB3LYP) =  -302.787101803     A.U. after    8 cycles
 SCF Done:  E(RB3LYP) =  -302.787102379     A.U. after    7 cycles
 SCF Done:  E(RB3LYP) =  -302.787103302     A.U. after    7 cycles
 SCF Done:  E(RB3LYP) =  -302.787103712     A.U. after    7 cycles
 SCF Done:  E(RB3LYP) =  -302.787103791     A.U. after    7 cycles
 SCF Done:  E(RB3LYP) =  -302.787103895     A.U. after    7 cycles
 SCF Done:  E(RB3LYP) =  -302.787104069     A.U. after    7 cycles
 SCF Done:  E(RB3LYP) =  -302.787104147     A.U. after    7 cycles
 Optimization completed.
    -- Stationary point found.
 Normal termination of Gaussian 09 at Thu Sep 30 20:08:28 2021.

 ----------------------------------------------------------------------
 #N Geom=AllCheck Guess=TCheck SCRF=Check GenChk RB3LYP/Aug-CC-pVTZ Fre
 q
 ----------------------------------------------------------------------

 Structure from the checkpoint file:  "288-32-4.chk"
 -------------------
 Title Card Required
 -------------------
 Charge =  0 Multiplicity = 1

                         Standard orientation:
 ---------------------------------------------------------------------
 Center     Atomic      Atomic             Coordinates (Angstroms)
 Number     Number       Type             X           Y           Z
 ---------------------------------------------------------------------
      1          6           0        0.662809    1.153684    0.006671
      2          6           0        0.271444   -0.956963    0.035658
      3          6           0        1.885842    0.546347   -0.027907
      4          1           0        0.441561    2.206536    0.002741
      5          1           0       -0.213136   -1.918218    0.054701
      6          1           0        2.886764    0.935198   -0.064077
      7          7           0        1.620812   -0.804830   -0.008821
      8          1           0        2.300842   -1.544136   -0.027914
      9          7           0       -0.333571    0.207095    0.046601
     10          8           0       -3.189944   -0.050926   -0.119362
     11          1           0       -3.591513    0.303587    0.677806
     12          1           0       -2.236227    0.150173   -0.039354
 ---------------------------------------------------------------------

 SCF Done:  E(RB3LYP) =  -302.787104147     A.U. after    1 cycles

 The electronic state is 1-A.
 Alpha  occ. eigenvalues --  -19.08738 -14.39637 -14.32174 -10.24636 -10.22050
 Alpha  occ. eigenvalues --  -10.20420  -1.03899  -0.96775  -0.89393  -0.76609
 Alpha  occ. eigenvalues --   -0.63829  -0.61323  -0.58437  -0.49166  -0.46295
 Alpha  occ. eigenvalues --   -0.45898  -0.45587  -0.43133  -0.35739  -0.30971
 Alpha  occ. eigenvalues --   -0.29747  -0.27673  -0.25516
 Alpha virt. eigenvalues --   -0.02651  -0.00546   0.00018   0.00252   0.01967
 Alpha virt. eigenvalues --    0.02458   0.02486   0.03205   0.04308   0.05487
 Alpha virt. eigenvalues --    0.06196   0.06745   0.06962   0.07210   0.07780

 Mulliken charges:
               1
     1  C   -0.279041
     2  C   -0.436610
     3  C   -0.326090
     4  H    0.485897
     5  H    0.521140
     6  H    0.456032
     7  N   -0.107412
     8  H    0.078247
     9  N   -0.342759
    10  O   -0.455847
    11  H    0.132983
    12  H    0.273461
 Sum of Mulliken charges =   0.00000

 Dipole moment (field-independent basis, Debye):
    X=              5.3093    Y=             -0.9678    Z=              1.2369  Tot=              5.5367
 Quadrupole moment (field-independent basis, Debye-Ang):
   XX=            -37.7272   YY=            -30.1506   ZZ=            -38.4192
   XY=             -4.7140   XZ=             -5.4393   YZ=              0.5100

  Exact polarizability:  72.953   0.943  64.331  -1.124  -0.168  42.044
 Approx polarizability: 104.243  -0.579  98.881  -1.982   0.324  60.423

                      1                      2                      3
                      A                      A                      A
 Frequencies --     27.3987                45.9721               107.7024
 Red. masses --      5.2751                 5.1897                 1.0680
 Frc consts  --      0.0023                 0.0065                 0.0073
 IR Inten    --      7.2506                 3.4410               101.6824

                      4                      5                      6
                      A                      A                      A
 Frequencies --    169.3870               399.8398               557.8329
 Red. masses --      6.4187                 1.0496                 1.5612
 Frc consts  --      0.1085                 0.0989                 0.2862
 IR Inten    --      3.6109                89.6011                90.2606

                      7                      8                      9
                      A                      A                      A
 Frequencies --    647.9603               681.6039               722.1803
 Red. masses --      2.1159                 2.5206                 1.0637
 Frc consts  --      0.5234                 0.6899                 0.3269
 IR Inten    --     11.7383                 3.5327                70.3439

                     10                     11                     12
                      A                      A                      A
 Frequencies --    746.7875               838.5528               886.7493
 Red. masses --      1.2374                 1.4086                 1.3657
 Frc consts  --      0.4066                 0.5836                 0.6327
 IR Inten    --     42.6746                28.9964                 2.8446

                     13                     14                     15
                      A                      A                      A
 Frequencies --    923.4722               948.7216              1075.3174
 Red. masses --      5.3744                 4.3669                 1.6427
 Frc consts  --      2.7004                 2.3158                 1.1191
 IR Inten    --     13.1998                 0.7465                49.6071

                     16                     17                     18
                      A                      A                      A
 Frequencies --   1099.7101              1147.4103              1168.4597
 Red. masses --      1.4978                 1.5700                 4.2763
 Frc consts  --      1.0672                 1.2178                 3.4399
 IR Inten    --     15.4041                 3.6697                 4.3192

                     19                     20                     21
                      A                      A                      A
 Frequencies --   1285.8129              1364.2500              1434.0027
 Red. masses --      1.4328                 3.3862                 2.8039
 Frc consts  --      1.3957                 3.7132                 3.3971
 IR Inten    --      0.9437                 5.4817                16.7438

                     22                     23                     24
                      A                      A                      A
 Frequencies --   1505.3677              1561.8719              1659.9464
 Red. masses --      3.0402                 3.1801                 1.0759
 Frc consts  --      4.0592                 4.5706                 1.7467
 IR Inten    --     28.5621                11.8169                36.6272

                     25                     26                     27
                      A                      A                      A
 Frequencies --   3247.8130              3251.4706              3275.6459
 Red. masses --      1.0929                 1.0979                 1.1049
 Frc consts  --      6.7925                 6.8386                 6.9848
 IR Inten    --      1.8076                 3.6015                 0.7131

                     28                     29                     30
                      A                      A                      A
 Frequencies --   3509.9518              3652.8528              3865.9333
 Red. masses --      1.0613                 1.0817                 1.0680
 Frc consts  --      7.7035                 8.5041                 9.4048
 IR Inten    --    912.8984                63.6125                65.4324

 - Thermochemistry -
 -------------------
 Temperature   298.150 Kelvin.  Pressure   1.00000 Atm.
 Atom     1 has atomic number  6 and mass  12.00000

 Molecular mass:    86.04801 amu.
 Principal axes and moments of inertia in atomic units:
                           1         2         3
     Eigenvalues --   189.253841009.566521193.61430
           X            0.99995  -0.00383  -0.00920
           Y            0.00385   0.99999   0.00180
           Z            0.00920  -0.00183   0.99996
 This molecule is an asymmetric top.
 Rotational symmetry number  1.
 Rotational temperatures (Kelvin)      0.45766     0.08579     0.07256
 Rotational constants (GHZ):           9.53609     1.78764     1.51200
 Zero-point vibrational energy     250079.2 (Joules/Mol)
                                   59.77036 (Kcal/Mol)
 Warning -- explicit consideration of   6 degrees of freedom as
           vibrations may cause significant error
 Vibrational temperatures:     39.42    66.14   154.96   243.71   575.28
          (Kelvin)            802.60   932.27   980.67  1039.06  1074.46
                             1206.49  1275.83  1328.67  1365.00  1547.14
                             1582.24  1650.87  1681.15  1850.00  1962.85
                             2063.21  2165.89  2247.18  2388.29  4672.87
                             4678.14  4712.92  5050.03  5255.63  5562.21

 Zero-point correction=                           0.095250 (Hartree/Particle)
 Thermal correction to Energy=                    0.102438
 Thermal correction to Enthalpy=                  0.103382
 Thermal correction to Gibbs Free Energy=         0.062255
 Sum of electronic and zero-point Energies=           -302.691854
 Sum of electronic and thermal Energies=              -302.684666
 Sum of electronic and thermal Enthalpies=            -302.683722
 Sum of electronic and thermal Free Energies=         -302.724849

                     E (Thermal)             CV                S
                      KCal/Mol        Cal/Mol-Kelvin    Cal/Mol-Kelvin
 Total                   64.281             23.277             86.560
 Electronic               0.000              0.000              0.000
 Translational            0.889              2.981             39.270
 Rotational               0.889              2.981             26.925
 Vibrational             62.503             17.315             20.365
 Vibration     1          0.593              1.984              6.009
 Vibration     2          0.595              1.979              4.984
 Vibration     3          0.606              1.943              3.310
 Vibration     4          0.625              1.880              2.442
 Vibration     5          0.766              1.470              0.963
 Vibration     6          0.913              1.123              0.528

 Optimization completed.
    -- Stationary point found.
 Normal termination of Gaussian 09 at Thu Sep 30 21:27:19 2021.
