 Gaussian 09, Revision D.01,
 Gaussian 09:  ES64L-G09RevD.01 24-Apr-2013

 ----------------------------------------------------------------------
 # opt freq b3lyp/aug-cc-pvtz EmpiricalDispersion=GD3 geom=connectivity
 ----------------------------------------------------------------------

 -------------------
 Title Card Required
 -------------------
 Symbolic Z-matrix:
 Charge =  0 Multiplicity = 1

 SCF Done:  E(RB3LYP) =  -705.904964705     A.U. after   12 cycles
 SCF Done:  E(RB3LYP) =  -705.905191608     A.U. after    8 cycles
 SCF Done:  E(RB3LYP) =  -705.905230347     A.U. after    8 cycles
 SCF Done:  E(RB3LYP) =  -705.905265633     A.U. after    8 cycles
 SCF Done:  E(RB3LYP) =  -705.905306676     A.U. after    8 cycles
 SCF Done:  E(RB3LYP) =  -705.905324981     A.U. after    8 cycles
 SCF Done:  E(RB3LYP) =  -705.905343169     A.U. after    9 cycles
 SCF Done:  E(RB3LYP) =  -705.905378578     A.U. after    9 cycles
 SCF Done:  E(RB3LYP) =  -705.905483841     A.U. after    9 cycles
 SCF Done:  E(RB3LYP) =  -705.905514854     A.U. after    8 cycles
 SCF Done:  E(RB3LYP) =  -705.905669521     A.U. after    7 cycles
 SCF Done:  E(RB3LYP) =  -705.905669421     A.U. after    7 cycles
 SCF Done:  E(RB3LYP) =  -705.905669693     A.U. after    7 cycles
 SCF Done:  E(RB3LYP) =  -705.905669687     A.U. after    7 cycles
 SCF Done:  E(RB3LYP) =  -705.905669838     A.U. after    7 cycles
 SCF Done:  E(RB3LYP) =  -705.905669828     A.U. after    6 cycles
 SCF Done:  E(RB3LYP) =  -705.905669863     A.U. after    6 cycles
 SCF Done:  E(RB3LYP) =  -705.905669873     A.U. after    6 cycles
 SCF Done:  E(RB3LYP) =  -705.905669906     A.U. after    6 cycles
 Optimization completed.
    -- Stationary point found.
 Normal termination of Gaussian 09 at Fri Oct  1 04:35:27 2021.

 ----------------------------------------------------------------------
 #N Geom=AllCheck Guess=TCheck SCRF=Check GenChk RB3LYP/Aug-CC-pVTZ Fre
 q
 ----------------------------------------------------------------------

 Structure from the checkpoint file:  "327-54-8.chk"
 -------------------
 Title Card Required
 -------------------
 Charge =  0 Multiplicity = 1

                         Standard orientation:
 ---------------------------------------------------------------------
 Center     Atomic      Atomic             Coordinates (Angstroms)
 Number     Number       Type             X           Y           Z
 ---------------------------------------------------------------------
      1          6           0       -0.802273    0.602404    0.000240
      2          6           0       -0.530319   -0.753520    0.000341
      3          6           0        0.792222   -1.159483    0.000175
      4          6           0        1.820898   -0.226444   -0.000137
      5          6           0        1.543346    1.129001   -0.000238
      6          6           0        0.221748    1.537944   -0.000033
      7          1           0       -1.335924   -1.473577    0.000591
      8          1           0        2.343145    1.853784   -0.000455
      9          9           0        3.094411   -0.645986   -0.000293
     10          9           0        1.090366   -2.466382    0.000295
     11          9           0       -2.080291    1.033994    0.000485
     12          9           0       -0.074595    2.846286   -0.000102
     13          8           0       -3.660502   -1.474215   -0.000619
     14          1           0       -4.576463   -1.765437   -0.000477
     15          1           0       -3.689487   -0.511665   -0.000259
 ---------------------------------------------------------------------

 SCF Done:  E(RB3LYP) =  -705.905669906     A.U. after    1 cycles

 The electronic state is 1-A.
 Alpha  occ. eigenvalues --  -24.73017 -24.72510 -24.72345 -24.72106 -19.14687
 Alpha  occ. eigenvalues --  -10.29489 -10.29405 -10.29384 -10.29210 -10.21986
 Alpha  occ. eigenvalues --  -10.21566  -1.26674  -1.26249  -1.25309  -1.24897
 Alpha  occ. eigenvalues --   -1.02821  -0.90711  -0.79828  -0.78338  -0.68230
 Alpha  occ. eigenvalues --   -0.66118  -0.60181  -0.58550  -0.58391  -0.55486
 Alpha  occ. eigenvalues --   -0.54777  -0.52297  -0.51254  -0.50571  -0.48952
 Alpha  occ. eigenvalues --   -0.48430  -0.48129  -0.47737  -0.45252  -0.42678
 Alpha  occ. eigenvalues --   -0.40969  -0.40239  -0.39600  -0.37472  -0.33258
 Alpha  occ. eigenvalues --   -0.28952  -0.26498
 Alpha virt. eigenvalues --   -0.04796  -0.02557  -0.02246  -0.01180   0.00478
 Alpha virt. eigenvalues --    0.00531   0.02735   0.03387   0.03693   0.04748
 Alpha virt. eigenvalues --    0.05715   0.06230   0.06519   0.06778   0.07036

 Mulliken charges:
               1
     1  C    0.753860
     2  C   -0.817605
     3  C    0.535017
     4  C    0.495459
     5  C   -0.703758
     6  C    0.508392
     7  H    0.582089
     8  H    0.389660
     9  F   -0.414775
    10  F   -0.436227
    11  F   -0.459573
    12  F   -0.417092
    13  O   -0.381365
    14  H    0.120185
    15  H    0.245732
 Sum of Mulliken charges =   0.00000

 Dipole moment (field-independent basis, Debye):
    X=             -1.6086    Y=              0.7837    Z=              0.0007  Tot=              1.7894
 Quadrupole moment (field-independent basis, Debye-Ang):
   XX=            -50.7904   YY=            -66.1284   ZZ=            -61.1977
   XY=              6.6309   XZ=             -0.0024   YZ=             -0.0019

  Exact polarizability:  99.431   0.095  93.489  -0.005  -0.003  50.529
 Approx polarizability: 152.014  -4.225 152.517  -0.013  -0.007  75.224

                      1                      2                      3
                      A                      A                      A
 Frequencies --     24.8075                53.0901                73.9449
 Red. masses --      8.8728                 1.0894                 6.0960
 Frc consts  --      0.0032                 0.0018                 0.0196
 IR Inten    --      0.3987               148.3340                 5.5511

                      4                      5                      6
                      A                      A                      A
 Frequencies --    116.1112               129.2847               195.5865
 Red. masses --      7.2892                17.3129                10.3171
 Frc consts  --      0.0579                 0.1705                 0.2325
 IR Inten    --      1.3633                 0.2656                 0.4623

                      7                      8                      9
                      A                      A                      A
 Frequencies --    240.8921               256.8261               282.1477
 Red. masses --      1.0723                 1.1023                17.9432
 Frc consts  --      0.0367                 0.0428                 0.8416
 IR Inten    --    146.7114                56.5299                 0.1737

                     10                     11                     12
                      A                      A                      A
 Frequencies --    292.1315               304.0043               347.2345
 Red. masses --      5.6776                17.2356                14.5451
 Frc consts  --      0.2855                 0.9385                 1.0333
 IR Inten    --      2.9619                 0.5512                 3.9800

                     13                     14                     15
                      A                      A                      A
 Frequencies --    419.2495               424.6219               476.1994
 Red. masses --     12.5559                12.1975                 2.9931
 Frc consts  --      1.3003                 1.2958                 0.3999
 IR Inten    --      0.0057                 0.1515                 4.6397

                     16                     17                     18
                      A                      A                      A
 Frequencies --    493.4715               641.6613               690.1695
 Red. masses --     14.5165                 5.1885                 5.3856
 Frc consts  --      2.0827                 1.2587                 1.5115
 IR Inten    --      0.2221                 0.0083                 0.0348

                     19                     20                     21
                      A                      A                      A
 Frequencies --    695.3732               702.4259               760.9771
 Red. masses --      4.0013                11.6506                 7.7341
 Frc consts  --      1.1399                 3.3869                 2.6388
 IR Inten    --      0.0891                41.6648                 0.2316

                     22                     23                     24
                      A                      A                      A
 Frequencies --    870.9320               872.2112               919.0995
 Red. masses --      1.6385                 3.3263                 1.3938
 Frc consts  --      0.7323                 1.4909                 0.6937
 IR Inten    --     11.2901               138.2886                41.7693

                     25                     26                     27
                      A                      A                      A
 Frequencies --   1129.3015              1180.4449              1227.2801
 Red. masses --      9.2427                 1.6418                 5.3042
 Frc consts  --      6.9449                 1.3479                 4.7071
 IR Inten    --      0.8335               146.7423               101.4109

                     28                     29                     30
                      A                      A                      A
 Frequencies --   1233.8565              1319.3263              1388.0349
 Red. masses --      1.5060                11.7237                11.3102
 Frc consts  --      1.3509                12.0232                12.8388
 IR Inten    --     37.8674                15.0684                 0.3164

                     31                     32                     33
                      A                      A                      A
 Frequencies --   1449.9140              1554.8078              1625.9588
 Red. masses --     10.3524                 4.3813                 1.1098
 Frc consts  --     12.8226                 6.2403                 1.7287
 IR Inten    --     47.3737               507.2942                77.6686

                     34                     35                     36
                      A                      A                      A
 Frequencies --   1659.3571              1660.8795              3206.0712
 Red. masses --      6.7445                10.5742                 1.0932
 Frc consts  --     10.9416                17.1859                 6.6206
 IR Inten    --      1.6363                 0.7913                52.3478

                     37                     38                     39
                      A                      A                      A
 Frequencies --   3217.1030              3791.2853              3896.1347
 Red. masses --      1.0926                 1.0448                 1.0824
 Frc consts  --      6.6627                 8.8482                 9.6808
 IR Inten    --      1.5752                12.1180               102.0295

 - Thermochemistry -
 -------------------
 Temperature   298.150 Kelvin.  Pressure   1.00000 Atm.
 Atom     1 has atomic number  6 and mass  12.00000

 Molecular mass:   168.01983 amu.
 Principal axes and moments of inertia in atomic units:
                           1         2         3
     Eigenvalues --  1466.309842260.029273726.33898
           X            0.99440   0.10572   0.00000
           Y           -0.10572   0.99440   0.00000
           Z            0.00000   0.00000   1.00000
 This molecule is an asymmetric top.
 Rotational symmetry number  1.
 Warning -- assumption of classical behavior for rotation
           may cause significant error
 Rotational temperatures (Kelvin)      0.05907     0.03832     0.02324
 Rotational constants (GHZ):           1.23080     0.79855     0.48432
 Zero-point vibrational energy     238189.7 (Joules/Mol)
                                   56.92870 (Kcal/Mol)
 Warning -- explicit consideration of  16 degrees of freedom as
           vibrations may cause significant error
 Vibrational temperatures:     35.69    76.38   106.39   167.06   186.01
          (Kelvin)            281.40   346.59   369.51   405.95   420.31
                              437.39   499.59   603.21   610.94   685.14
                              709.99   923.21   993.00  1000.49  1010.63
                             1094.87  1253.08  1254.92  1322.38  1624.81
                             1698.39  1765.78  1775.24  1898.21  1997.07
                             2086.10  2237.02  2339.39  2387.44  2389.63
                             4612.82  4628.69  5454.81  5605.66

 Zero-point correction=                           0.090722 (Hartree/Particle)
 Thermal correction to Energy=                    0.102535
 Thermal correction to Enthalpy=                  0.103479
 Thermal correction to Gibbs Free Energy=         0.051280
 Sum of electronic and zero-point Energies=           -705.814948
 Sum of electronic and thermal Energies=              -705.803135
 Sum of electronic and thermal Enthalpies=            -705.802191
 Sum of electronic and thermal Free Energies=         -705.854390

                     E (Thermal)             CV                S
                      KCal/Mol        Cal/Mol-Kelvin    Cal/Mol-Kelvin
 Total                   64.342             40.284            109.862
 Electronic               0.000              0.000              0.000
 Translational            0.889              2.981             41.265
 Rotational               0.889              2.981             30.891
 Vibrational             62.564             34.323             37.706
 Vibration     1          0.593              1.985              6.207
 Vibration     2          0.596              1.976              4.699
 Vibration     3          0.599              1.966              4.046
 Vibration     4          0.608              1.936              3.164
 Vibration     5          0.612              1.924              2.957
 Vibration     6          0.636              1.846              2.174
 Vibration     7          0.658              1.778              1.796
 Vibration     8          0.666              1.751              1.683
 Vibration     9          0.681              1.707              1.521
 Vibration    10          0.688              1.688              1.462
 Vibration    11          0.695              1.666              1.395
 Vibration    12          0.725              1.581              1.179
 Vibration    13          0.782              1.428              0.895
 Vibration    14          0.787              1.417              0.876
 Vibration    15          0.833              1.303              0.720
 Vibration    16          0.849              1.265              0.675

 Optimization completed.
    -- Stationary point found.
 Normal termination of Gaussian 09 at Fri Oct  1 06:22:14 2021.
