 Gaussian 09, Revision D.01,
 Gaussian 09:  ES64L-G09RevD.01 24-Apr-2013

 ----------------------------------------------------
 # opt freq b3lyp/aug-cc-pvtz EmpiricalDispersion=GD3
 ----------------------------------------------------

 -------------------
 Title Card Required
 -------------------
 Symbolic Z-matrix:
 Charge =  0 Multiplicity = 1

 SCF Done:  E(RB3LYP) =  -476.322147264     A.U. after   13 cycles
 SCF Done:  E(RB3LYP) =  -476.345774826     A.U. after   11 cycles
 SCF Done:  E(RB3LYP) =  -476.355402846     A.U. after   11 cycles
 SCF Done:  E(RB3LYP) =  -476.357160679     A.U. after   10 cycles
 SCF Done:  E(RB3LYP) =  -476.357996746     A.U. after   10 cycles
 SCF Done:  E(RB3LYP) =  -476.358476410     A.U. after   10 cycles
 SCF Done:  E(RB3LYP) =  -476.358736163     A.U. after   10 cycles
 SCF Done:  E(RB3LYP) =  -476.358891031     A.U. after   10 cycles
 SCF Done:  E(RB3LYP) =  -476.359059141     A.U. after   10 cycles
 SCF Done:  E(RB3LYP) =  -476.359199825     A.U. after    9 cycles
 SCF Done:  E(RB3LYP) =  -476.359390588     A.U. after    8 cycles
 SCF Done:  E(RB3LYP) =  -476.359396686     A.U. after    8 cycles
 SCF Done:  E(RB3LYP) =  -476.359400125     A.U. after    8 cycles
 SCF Done:  E(RB3LYP) =  -476.359400679     A.U. after    7 cycles
 SCF Done:  E(RB3LYP) =  -476.359400930     A.U. after    7 cycles
 SCF Done:  E(RB3LYP) =  -476.359401242     A.U. after    7 cycles
 SCF Done:  E(RB3LYP) =  -476.359401590     A.U. after    7 cycles
 SCF Done:  E(RB3LYP) =  -476.359401740     A.U. after    7 cycles
 SCF Done:  E(RB3LYP) =  -476.359401773     A.U. after    6 cycles
 Optimization completed.
    -- Stationary point found.
 Normal termination of Gaussian 09 at Fri Oct  1 00:48:11 2021.

 ----------------------------------------------------------------------
 #N Geom=AllCheck Guess=TCheck SCRF=Check GenChk RB3LYP/Aug-CC-pVTZ Fre
 q
 ----------------------------------------------------------------------

 Structure from the checkpoint file:  "611-20-1.chk"
 -------------------
 Title Card Required
 -------------------
 Charge =  0 Multiplicity = 1

                         Standard orientation:
 ---------------------------------------------------------------------
 Center     Atomic      Atomic             Coordinates (Angstroms)
 Number     Number       Type             X           Y           Z
 ---------------------------------------------------------------------
      1          6           0       -1.528983   -1.403194    0.011662
      2          6           0       -2.691510   -0.656970   -0.008738
      3          6           0       -2.649752    0.739368   -0.024765
      4          6           0       -1.425452    1.374409   -0.017245
      5          6           0       -0.233112    0.631267    0.005632
      6          6           0       -0.275779   -0.780277    0.017279
      7          1           0       -1.553939   -2.483347    0.021324
      8          1           0       -3.645829   -1.166187   -0.013918
      9          1           0       -3.562380    1.316831   -0.042305
     10          1           0       -1.363060    2.453390   -0.027235
     11          8           0        0.796427   -1.581638    0.039289
     12          1           0        1.674035   -1.140154   -0.010325
     13          6           0        1.013182    1.313643    0.025419
     14          7           0        2.040556    1.839013    0.046841
     15          8           0        3.391669   -0.713676   -0.136312
     16          1           0        4.006965   -1.052412    0.520440
     17          1           0        3.403993    0.251819   -0.055151
 ---------------------------------------------------------------------

 SCF Done:  E(RB3LYP) =  -476.359401773     A.U. after    2 cycles

 The electronic state is 1-A.
 Alpha  occ. eigenvalues --  -19.16498 -19.15735 -14.33107 -10.26981 -10.23196
 Alpha  occ. eigenvalues --  -10.22667 -10.20880 -10.20274 -10.19188 -10.19177
 Alpha  occ. eigenvalues --   -1.07610  -1.03871  -0.93024  -0.88044  -0.79227
 Alpha  occ. eigenvalues --   -0.76704  -0.67170  -0.63212  -0.59512  -0.56136
 Alpha  occ. eigenvalues --   -0.54101  -0.50794  -0.48048  -0.45461  -0.44334
 Alpha  occ. eigenvalues --   -0.42775  -0.40468  -0.39977  -0.38730  -0.38366
 Alpha  occ. eigenvalues --   -0.36600  -0.36134  -0.35630  -0.33704  -0.27880
 Alpha  occ. eigenvalues --   -0.24777
 Alpha virt. eigenvalues --   -0.06174  -0.02416  -0.02095  -0.01117   0.00202
 Alpha virt. eigenvalues --    0.00426   0.01432   0.02584   0.02948   0.03239
 Alpha virt. eigenvalues --    0.04061   0.04977   0.05126   0.05630   0.06106

 Mulliken charges:
               1
     1  C   -0.457729
     2  C   -0.346448
     3  C   -0.234793
     4  C   -1.144491
     5  C    1.460103
     6  C    0.150467
     7  H    0.378287
     8  H    0.383738
     9  H    0.376692
    10  H    0.269164
    11  O   -0.699472
    12  H    0.251547
    13  C    0.387966
    14  N   -0.792090
    15  O   -0.333142
    16  H    0.131017
    17  H    0.219182
 Sum of Mulliken charges =   0.00000

 Dipole moment (field-independent basis, Debye):
    X=             -1.5010    Y=             -0.5852    Z=              0.9877  Tot=              1.8898
 Quadrupole moment (field-independent basis, Debye-Ang):
   XX=            -47.9921   YY=            -60.7287   ZZ=            -61.1631
   XY=             -4.7244   XZ=              4.7335   YZ=             -1.5297

  Exact polarizability: 142.836   8.338 109.131   1.246  -0.454  60.121
 Approx polarizability: 220.221  17.106 182.883   2.505  -0.893  92.188

                      1                      2                      3
                      A                      A                      A
 Frequencies --     32.2973               131.3361               139.1832
 Red. masses --      6.1536                 5.2105                 7.1053
 Frc consts  --      0.0038                 0.0530                 0.0811
 IR Inten    --      6.0154                 0.5579                 6.9749

                      4                      5                      6
                      A                      A                      A
 Frequencies --    172.5238               205.0947               220.9225
 Red. masses --      4.9217                 6.3454                 1.2285
 Frc consts  --      0.0863                 0.1573                 0.0353
 IR Inten    --     12.4298                 8.4029                95.7046

                      7                      8                      9
                      A                      A                      A
 Frequencies --    235.4279               337.2537               406.4353
 Red. masses --      3.9410                 1.1925                 4.2262
 Frc consts  --      0.1287                 0.0799                 0.4113
 IR Inten    --     14.7680                66.4710                 1.5932

                     10                     11                     12
                      A                      A                      A
 Frequencies --    412.1180               470.0153               515.3062
 Red. masses --      5.3092                 3.3792                 3.4654
 Frc consts  --      0.5313                 0.4398                 0.5422
 IR Inten    --     17.9425                35.5026                 7.6087

                     13                     14                     15
                      A                      A                      A
 Frequencies --    547.2515               584.8758               587.6419
 Red. masses --      1.5399                 4.2545                 4.7248
 Frc consts  --      0.2717                 0.8575                 0.9613
 IR Inten    --     97.3140                13.5603                 4.4903

                     16                     17                     18
                      A                      A                      A
 Frequencies --    625.4832               737.1665               752.8715
 Red. masses --      6.8957                 6.0492                 3.1753
 Frc consts  --      1.5895                 1.9368                 1.0604
 IR Inten    --      1.8814                 5.4224                30.3688

                     19                     20                     21
                      A                      A                      A
 Frequencies --    765.2396               796.7468               868.9865
 Red. masses --      1.2394                 1.1352                 5.9190
 Frc consts  --      0.4276                 0.4246                 2.6335
 IR Inten    --    128.1564                13.2170                 4.6107

                     22                     23                     24
                      A                      A                      A
 Frequencies --    889.3756               975.6754              1009.2678
 Red. masses --      1.4959                 1.3588                 1.3188
 Frc consts  --      0.6972                 0.7621                 0.7915
 IR Inten    --      0.0453                 1.5194                 0.2050

                     25                     26                     27
                      A                      A                      A
 Frequencies --   1058.3447              1129.2392              1189.2443
 Red. masses --      2.2601                 2.1432                 1.2107
 Frc consts  --      1.4915                 1.6102                 1.0089
 IR Inten    --     10.2860                 1.7883                25.7656

                     28                     29                     30
                      A                      A                      A
 Frequencies --   1209.5519              1270.6429              1279.1296
 Red. masses --      1.7597                 2.7040                 1.9893
 Frc consts  --      1.5168                 2.5722                 1.9177
 IR Inten    --     29.2820               166.7498                16.1305

                     31                     32                     33
                      A                      A                      A
 Frequencies --   1352.4492              1387.9354              1498.6183
 Red. masses --      4.5990                 1.3394                 2.3973
 Frc consts  --      4.9563                 1.5202                 3.1722
 IR Inten    --     44.1275                92.9683                10.7449

                     34                     35                     36
                      A                      A                      A
 Frequencies --   1517.0756              1600.7655              1626.6166
 Red. masses --      2.6485                 4.6912                 1.1150
 Frc consts  --      3.5914                 7.0825                 1.7382
 IR Inten    --    108.3677                41.7656               118.0986

                     37                     38                     39
                      A                      A                      A
 Frequencies --   1651.5881              2313.0857              3173.3358
 Red. masses --      5.3370                12.6422                 1.0871
 Frc consts  --      8.5773                39.8526                 6.4499
 IR Inten    --     46.0546               117.2872                 3.7431

                     40                     41                     42
                      A                      A                      A
 Frequencies --   3185.7104              3197.4874              3203.7207
 Red. masses --      1.0895                 1.0929                 1.0972
 Frc consts  --      6.5148                 6.5834                 6.6352
 IR Inten    --      2.5740                 5.4695                 6.0059

                     43                     44                     45
                      A                      A                      A
 Frequencies --   3393.8911              3698.5972              3865.4965
 Red. masses --      1.0715                 1.0534                 1.0745
 Frc consts  --      7.2715                 8.4898                 9.4594
 IR Inten    --    955.6600               160.5454               116.8131

 - Thermochemistry -
 -------------------
 Temperature   298.150 Kelvin.  Pressure   1.00000 Atm.
 Atom     1 has atomic number  6 and mass  12.00000

 Molecular mass:   137.04768 amu.
 Principal axes and moments of inertia in atomic units:
                           1         2         3
     Eigenvalues --   731.300561970.698022697.38681
           X            0.99988  -0.01487   0.00378
           Y            0.01489   0.99988  -0.00358
           Z           -0.00373   0.00363   0.99999
 This molecule is an asymmetric top.
 Rotational symmetry number  1.
 Warning -- assumption of classical behavior for rotation
           may cause significant error
 Rotational temperatures (Kelvin)      0.11844     0.04395     0.03211
 Rotational constants (GHZ):           2.46785     0.91579     0.66907
 Zero-point vibrational energy     336276.4 (Joules/Mol)
                                   80.37199 (Kcal/Mol)
 Warning -- explicit consideration of  15 degrees of freedom as
           vibrations may cause significant error
 Vibrational temperatures:     46.47   188.96   200.25   248.22   295.09
          (Kelvin)            317.86   338.73   485.23   584.77   592.95
                              676.25   741.41   787.37   841.50   845.48
                              899.93  1060.62  1083.21  1101.01  1146.34
                             1250.28  1279.61  1403.78  1452.11  1522.72
                             1624.72  1711.06  1740.27  1828.17  1840.38
                             1945.87  1996.93  2156.17  2182.73  2303.14
                             2340.34  2376.26  3328.01  4565.72  4583.52
                             4600.47  4609.43  4883.05  5321.45  5561.58

 Zero-point correction=                           0.128081 (Hartree/Particle)
 Thermal correction to Energy=                    0.138127
 Thermal correction to Enthalpy=                  0.139071
 Thermal correction to Gibbs Free Energy=         0.092379
 Sum of electronic and zero-point Energies=           -476.231321
 Sum of electronic and thermal Energies=              -476.221275
 Sum of electronic and thermal Enthalpies=            -476.220331
 Sum of electronic and thermal Free Energies=         -476.267023

                     E (Thermal)             CV                S
                      KCal/Mol        Cal/Mol-Kelvin    Cal/Mol-Kelvin
 Total                   86.676             36.887             98.272
 Electronic               0.000              0.000              0.000
 Translational            0.889              2.981             40.657
 Rotational               0.889              2.981             29.743
 Vibrational             84.898             30.926             27.872
 Vibration     1          0.594              1.983              5.683
 Vibration     2          0.612              1.922              2.926
 Vibration     3          0.615              1.914              2.815
 Vibration     4          0.626              1.876              2.408
 Vibration     5          0.640              1.833              2.087
 Vibration     6          0.648              1.809              1.952
 Vibration     7          0.655              1.787              1.837
 Vibration     8          0.718              1.601              1.225
 Vibration     9          0.771              1.456              0.939
 Vibration    10          0.776              1.444              0.919
 Vibration    11          0.827              1.317              0.738
 Vibration    12          0.870              1.216              0.621
 Vibration    13          0.902              1.146              0.550
 Vibration    14          0.942              1.064              0.476
 Vibration    15          0.945              1.058              0.471

 Normal termination of Gaussian 09 at Fri Oct  1 05:07:45 2021.
