 Gaussian 09, Revision D.01,
 Gaussian 09:  ES64L-G09RevD.01 24-Apr-2013

 ----------------------------------------------------------------------
 # opt freq b3lyp/aug-cc-pvtz EmpiricalDispersion=GD3 geom=connectivity
 ----------------------------------------------------------------------

 -------------------
 Title Card Required
 -------------------
 Symbolic Z-matrix:
 Charge =  0 Multiplicity = 1

 SCF Done:  E(RB3LYP) =  -364.199565435     A.U. after   12 cycles
 SCF Done:  E(RB3LYP) =  -364.199823362     A.U. after    9 cycles
 SCF Done:  E(RB3LYP) =  -364.199906073     A.U. after    9 cycles
 SCF Done:  E(RB3LYP) =  -364.200018478     A.U. after   10 cycles
 SCF Done:  E(RB3LYP) =  -364.200082125     A.U. after    9 cycles
 SCF Done:  E(RB3LYP) =  -364.200127622     A.U. after    9 cycles
 SCF Done:  E(RB3LYP) =  -364.200191156     A.U. after   10 cycles
 SCF Done:  E(RB3LYP) =  -364.200256689     A.U. after   10 cycles
 SCF Done:  E(RB3LYP) =  -364.200351343     A.U. after   12 cycles
 SCF Done:  E(RB3LYP) =  -364.200400312     A.U. after   10 cycles
 SCF Done:  E(RB3LYP) =  -364.200478710     A.U. after    8 cycles
 SCF Done:  E(RB3LYP) =  -364.200481301     A.U. after    8 cycles
 SCF Done:  E(RB3LYP) =  -364.200483442     A.U. after    7 cycles
 SCF Done:  E(RB3LYP) =  -364.200486267     A.U. after    7 cycles
 SCF Done:  E(RB3LYP) =  -364.200487120     A.U. after    7 cycles
 SCF Done:  E(RB3LYP) =  -364.200489108     A.U. after    7 cycles
 SCF Done:  E(RB3LYP) =  -364.200489488     A.U. after    7 cycles
 SCF Done:  E(RB3LYP) =  -364.200489480     A.U. after    6 cycles
 SCF Done:  E(RB3LYP) =  -364.200489218     A.U. after    6 cycles
 Optimization completed.
    -- Stationary point found.
 Normal termination of Gaussian 09 at Fri Oct  1 08:24:37 2021.

 ----------------------------------------------------------------------
 #N Geom=AllCheck Guess=TCheck SCRF=Check GenChk RB3LYP/Aug-CC-pVTZ Fre
 q
 ----------------------------------------------------------------------

 Structure from the checkpoint file:  "62-53-3.chk"
 -------------------
 Title Card Required
 -------------------
 Charge =  0 Multiplicity = 1

                         Standard orientation:
 ---------------------------------------------------------------------
 Center     Atomic      Atomic             Coordinates (Angstroms)
 Number     Number       Type             X           Y           Z
 ---------------------------------------------------------------------
      1          6           0        2.339919   -0.056532   -0.581657
      2          6           0        1.684877   -1.226344   -0.211983
      3          6           0        0.431717   -1.177769    0.383849
      4          6           0       -0.186911    0.051352    0.623177
      5          6           0        0.469258    1.225515    0.247178
      6          6           0        1.722163    1.167490   -0.348168
      7          1           0        3.315758   -0.098151   -1.044327
      8          1           0        2.150847   -2.186762   -0.387303
      9          1           0       -0.073184   -2.094528    0.661828
     10          1           0       -0.006466    2.183193    0.418208
     11          1           0        2.217332    2.086820   -0.630791
     12          7           0       -1.485900    0.102799    1.165291
     13          1           0       -1.727453   -0.689967    1.741456
     14          1           0       -1.703070    0.965966    1.641202
     15          8           0       -3.371335   -0.078606   -1.118748
     16          1           0       -2.822845   -0.156447   -1.903903
     17          1           0       -2.745081   -0.003136   -0.377803
 ---------------------------------------------------------------------

 SCF Done:  E(RB3LYP) =  -364.200489218     A.U. after    1 cycles

 The electronic state is 1-A.
 Alpha  occ. eigenvalues --  -19.10500 -14.34616 -10.22998 -10.18637 -10.18635
 Alpha  occ. eigenvalues --  -10.18340 -10.18337 -10.17749  -0.98615  -0.93997
 Alpha  occ. eigenvalues --   -0.85341  -0.75898  -0.74178  -0.62701  -0.61305
 Alpha  occ. eigenvalues --   -0.54060  -0.52613  -0.50913  -0.49148  -0.44659
 Alpha  occ. eigenvalues --   -0.44494  -0.43216  -0.40607  -0.37120  -0.36856
 Alpha  occ. eigenvalues --   -0.35572  -0.32995  -0.29335  -0.26716  -0.23177
 Alpha virt. eigenvalues --   -0.02540  -0.02229  -0.01405  -0.00492   0.00000
 Alpha virt. eigenvalues --    0.00908   0.01838   0.01950   0.03477   0.04253
 Alpha virt. eigenvalues --    0.04687   0.04868   0.05695   0.06050   0.06204

 Mulliken charges:
               1
     1  C   -0.341733
     2  C   -0.314947
     3  C   -0.890392
     4  C    1.405645
     5  C   -0.894357
     6  C   -0.305975
     7  H    0.385122
     8  H    0.377585
     9  H    0.356333
    10  H    0.355548
    11  H    0.374942
    12  N   -0.453130
    13  H   -0.034582
    14  H   -0.031229
    15  O   -0.457898
    16  H    0.143185
    17  H    0.325883
 Sum of Mulliken charges =   0.00000

 Dipole moment (field-independent basis, Debye):
    X=              2.1809    Y=              0.1177    Z=              1.7606  Tot=              2.8053
 Quadrupole moment (field-independent basis, Debye-Ang):
   XX=            -61.8001   YY=            -44.4865   ZZ=            -45.8796
   XY=             -0.4843   XZ=             -8.5262   YZ=              0.1569

  Exact polarizability: 108.354  -1.001  94.492 -16.677  -1.038  70.210
 Approx polarizability: 160.223  -1.857 154.655 -31.987  -2.162 105.845

                      1                      2                      3
                      A                      A                      A
 Frequencies --     16.1727                26.4598               129.4110
 Red. masses --      4.7466                 5.0998                 1.0698
 Frc consts  --      0.0007                 0.0021                 0.0106
 IR Inten    --      2.5494                 3.1082                87.3980

                      4                      5                      6
                      A                      A                      A
 Frequencies --    160.9830               239.2621               290.3782
 Red. masses --      5.3326                 3.3582                 1.0347
 Frc consts  --      0.0814                 0.1133                 0.0514
 IR Inten    --      4.8527                 7.0083                 1.3409

                      7                      8                      9
                      A                      A                      A
 Frequencies --    365.7921               388.4057               418.8676
 Red. masses --      1.1336                 2.7946                 2.8803
 Frc consts  --      0.0894                 0.2484                 0.2977
 IR Inten    --     92.8841                 4.5856                 0.0092

                     10                     11                     12
                      A                      A                      A
 Frequencies --    518.7062               542.2126               635.8703
 Red. masses --      2.4854                 6.0920                 6.2197
 Frc consts  --      0.3940                 1.0552                 1.4817
 IR Inten    --     14.3789                 0.9856                 0.9939

                     13                     14                     15
                      A                      A                      A
 Frequencies --    665.1851               710.0359               724.2588
 Red. masses --      1.0809                 1.8976                 1.3209
 Frc consts  --      0.2818                 0.5637                 0.4082
 IR Inten    --     57.3269                37.3905               174.3136

                     16                     17                     18
                      A                      A                      A
 Frequencies --    781.4620               833.1520               839.8148
 Red. masses --      1.8847                 3.4677                 1.2569
 Frc consts  --      0.6781                 1.4182                 0.5223
 IR Inten    --    137.2102                 8.7979                 0.1744

                     19                     20                     21
                      A                      A                      A
 Frequencies --    907.9798               983.5185              1003.5232
 Red. masses --      1.5305                 1.3631                 1.2951
 Frc consts  --      0.7434                 0.7769                 0.7684
 IR Inten    --     16.7906                 0.0041                 0.1691

                     22                     23                     24
                      A                      A                      A
 Frequencies --   1017.2804              1051.9073              1077.5518
 Red. masses --      6.0586                 2.1514                 1.5920
 Frc consts  --      3.6941                 1.4025                 1.0891
 IR Inten    --      0.6621                 3.3714                 3.9796

                     25                     26                     27
                      A                      A                      A
 Frequencies --   1143.5615              1189.6203              1210.9721
 Red. masses --      1.2748                 1.1204                 1.1353
 Frc consts  --      0.9823                 0.9342                 0.9809
 IR Inten    --      2.6063                 1.5300                 7.2919

                     28                     29                     30
                      A                      A                      A
 Frequencies --   1280.7374              1345.6928              1376.9590
 Red. masses --      3.3541                 4.8225                 1.2795
 Frc consts  --      3.2415                 5.1454                 1.4293
 IR Inten    --     59.8580                 3.5468                 0.0071

                     31                     32                     33
                      A                      A                      A
 Frequencies --   1505.1487              1534.0160              1630.8076
 Red. masses --      2.2527                 2.2676                 5.5636
 Frc consts  --      3.0068                 3.1440                 8.7179
 IR Inten    --      2.5631                52.2076                 3.8488

                     34                     35                     36
                      A                      A                      A
 Frequencies --   1645.1389              1656.0717              1663.7131
 Red. masses --      3.8335                 1.0864                 1.2095
 Frc consts  --      6.1130                 1.7555                 1.9725
 IR Inten    --     41.7764                36.8650               117.8198

                     37                     38                     39
                      A                      A                      A
 Frequencies --   3155.7842              3157.3720              3172.5502
 Red. masses --      1.0870                 1.0880                 1.0897
 Frc consts  --      6.3781                 6.3907                 6.4623
 IR Inten    --     12.7462                 2.7138                 3.2065

                     40                     41                     42
                      A                      A                      A
 Frequencies --   3179.2366              3194.8328              3535.3096
 Red. masses --      1.0935                 1.0970                 1.0482
 Frc consts  --      6.5119                 6.5972                 7.7191
 IR Inten    --     23.2017                10.0219                21.6511

                     43                     44                     45
                      A                      A                      A
 Frequencies --   3597.3734              3625.8964              3863.8485
 Red. masses --      1.0585                 1.0973                 1.0697
 Frc consts  --      8.0705                 8.5000                 9.4089
 IR Inten    --    572.8798                18.3049                62.5753

 - Thermochemistry -
 -------------------
 Temperature   298.150 Kelvin.  Pressure   1.00000 Atm.
 Atom     1 has atomic number  6 and mass  12.00000

 Molecular mass:   111.06841 amu.
 Principal axes and moments of inertia in atomic units:
                           1         2         3
     Eigenvalues --   547.389711641.610001731.84839
           X            0.99988  -0.00095  -0.01529
           Y            0.00086   0.99998  -0.00601
           Z            0.01530   0.00600   0.99986
 This molecule is an asymmetric top.
 Rotational symmetry number  1.
 Warning -- assumption of classical behavior for rotation
           may cause significant error
 Rotational temperatures (Kelvin)      0.15823     0.05276     0.05001
 Rotational constants (GHZ):           3.29700     1.09937     1.04209
 Zero-point vibrational energy     370799.5 (Joules/Mol)
                                   88.62320 (Kcal/Mol)
 Warning -- explicit consideration of  11 degrees of freedom as
           vibrations may cause significant error
 Vibrational temperatures:     23.27    38.07   186.19   231.62   344.24
          (Kelvin)            417.79   526.29   558.83   602.66   746.30
                              780.12   914.87   957.05  1021.58  1042.05
                             1124.35  1198.72  1208.30  1306.38  1415.06
                             1443.84  1463.64  1513.46  1550.35  1645.33
                             1711.60  1742.32  1842.69  1936.15  1981.13
                             2165.57  2207.10  2346.37  2366.98  2382.71
                             2393.71  4540.46  4542.75  4564.59  4574.21
                             4596.65  5086.52  5175.81  5216.85  5559.21

 Zero-point correction=                           0.141230 (Hartree/Particle)
 Thermal correction to Energy=                    0.150481
 Thermal correction to Enthalpy=                  0.151425
 Thermal correction to Gibbs Free Energy=         0.105026
 Sum of electronic and zero-point Energies=           -364.059259
 Sum of electronic and thermal Energies=              -364.050008
 Sum of electronic and thermal Enthalpies=            -364.049064
 Sum of electronic and thermal Free Energies=         -364.095463

                     E (Thermal)             CV                S
                      KCal/Mol        Cal/Mol-Kelvin    Cal/Mol-Kelvin
 Total                   94.428             32.976             97.654
 Electronic               0.000              0.000              0.000
 Translational            0.889              2.981             40.031
 Rotational               0.889              2.981             28.833
 Vibrational             92.651             27.015             28.790
 Vibration     1          0.593              1.986              7.056
 Vibration     2          0.593              1.985              6.079
 Vibration     3          0.612              1.924              2.955
 Vibration     4          0.622              1.890              2.538
 Vibration     5          0.657              1.780              1.808
 Vibration     6          0.686              1.692              1.472
 Vibration     7          0.739              1.543              1.097
 Vibration     8          0.757              1.495              1.006
 Vibration     9          0.782              1.429              0.896
 Vibration    10          0.874              1.209              0.613
 Vibration    11          0.897              1.157              0.561

 Normal termination of Gaussian 09 at Fri Oct  1 12:50:04 2021.
