 Gaussian 09, Revision D.01,
 Gaussian 09:  ES64L-G09RevD.01 24-Apr-2013

 ----------------------------------------------------------------------
 # opt freq b3lyp/aug-cc-pvtz EmpiricalDispersion=GD3 geom=connectivity
 ----------------------------------------------------------------------

 -------------------
 Title Card Required
 -------------------
 Symbolic Z-matrix:
 Charge =  0 Multiplicity = 1

 SCF Done:  E(RB3LYP) =  -269.717552116     A.U. after   11 cycles
 SCF Done:  E(RB3LYP) =  -269.717921850     A.U. after   10 cycles
 SCF Done:  E(RB3LYP) =  -269.717982251     A.U. after    8 cycles
 SCF Done:  E(RB3LYP) =  -269.718009652     A.U. after    8 cycles
 SCF Done:  E(RB3LYP) =  -269.718044637     A.U. after    8 cycles
 SCF Done:  E(RB3LYP) =  -269.718095299     A.U. after    9 cycles
 SCF Done:  E(RB3LYP) =  -269.718158328     A.U. after    9 cycles
 SCF Done:  E(RB3LYP) =  -269.718207004     A.U. after    9 cycles
 SCF Done:  E(RB3LYP) =  -269.718220398     A.U. after    8 cycles
 SCF Done:  E(RB3LYP) =  -269.718229993     A.U. after    8 cycles
 SCF Done:  E(RB3LYP) =  -269.718258630     A.U. after    7 cycles
 SCF Done:  E(RB3LYP) =  -269.718258914     A.U. after    7 cycles
 SCF Done:  E(RB3LYP) =  -269.718259554     A.U. after    7 cycles
 SCF Done:  E(RB3LYP) =  -269.718259782     A.U. after    7 cycles
 SCF Done:  E(RB3LYP) =  -269.718259875     A.U. after    6 cycles
 SCF Done:  E(RB3LYP) =  -269.718260134     A.U. after    8 cycles
 SCF Done:  E(RB3LYP) =  -269.718260219     A.U. after    6 cycles
 SCF Done:  E(RB3LYP) =  -269.718260268     A.U. after    7 cycles
 SCF Done:  E(RB3LYP) =  -269.718260300     A.U. after    7 cycles
 Optimization completed.
    -- Stationary point found.

 1\1\GINC-NODE104\FOpt\RB3LYP\Aug-CC-pVTZ\C3H8O2\KAESER\30-Sep-2021\0\\
 # opt freq b3lyp/aug-cc-pvtz EmpiricalDispersion=GD3 geom=connectivity
 \\Title Card Required\\0,1\C,-0.7373160606,-0.0574864685,0.0380494207\
 O,0.0679043479,-0.9670509271,0.0911063381\C,-0.3141002022,1.3898554333
 ,-0.0047874245\H,-0.6072365519,1.8180571944,-0.966564983\H,-0.84005701
 8,1.9582831288,0.7647314052\H,0.7599810076,1.4883036333,0.1234056267\C
 ,-2.2210131781,-0.3338334225,0.009406513\H,-2.6867019143,0.1753197508,
 -0.836511867\H,-2.4057277214,-1.4028980388,-0.0491089362\H,-2.68337298

 Normal termination of Gaussian 09 at Thu Sep 30 19:19:32 2021.

 ----------------------------------------------------------------------
 #N Geom=AllCheck Guess=TCheck SCRF=Check GenChk RB3LYP/Aug-CC-pVTZ Fre
 q
 ----------------------------------------------------------------------

 Structure from the checkpoint file:  "67-64-1.chk"
 -------------------
 Title Card Required
 -------------------
 Charge =  0 Multiplicity = 1

                         Standard orientation:
 ---------------------------------------------------------------------
 Center     Atomic      Atomic             Coordinates (Angstroms)
 Number     Number       Type             X           Y           Z
 ---------------------------------------------------------------------
      1          6           0       -0.730988   -0.089974   -0.003245
      2          8           0        0.084455   -0.991850   -0.016498
      3          6           0       -0.323731    1.362570   -0.001700
      4          1           0       -0.655708    1.826262   -0.933946
      5          1           0       -0.826956    1.893254    0.808879
      6          1           0        0.753281    1.467765    0.091864
      7          6           0       -2.211983   -0.381560    0.009958
      8          1           0       -2.712979    0.156357   -0.797092
      9          1           0       -2.388269   -1.449361   -0.085787
     10          1           0       -2.645158   -0.021126    0.945936
     11          8           0        2.753737   -0.012822    0.002540
     12          1           0        1.918870   -0.511948   -0.008720
     13          1           0        3.451603   -0.670039    0.060450
 ---------------------------------------------------------------------

 SCF Done:  E(RB3LYP) =  -269.718260300     A.U. after    1 cycles

 The electronic state is 1-A.
 Alpha  occ. eigenvalues --  -19.13935 -19.10573 -10.28444 -10.19033 -10.18454
 Alpha  occ. eigenvalues --   -1.06511  -0.98642  -0.78679  -0.72525  -0.55393
 Alpha  occ. eigenvalues --   -0.51267  -0.47689  -0.47486  -0.47320  -0.41640
 Alpha  occ. eigenvalues --   -0.41310  -0.39514  -0.37257  -0.36613  -0.29424
 Alpha  occ. eigenvalues --   -0.27539
 Alpha virt. eigenvalues --   -0.04064  -0.01977   0.00176   0.00831   0.01404
 Alpha virt. eigenvalues --    0.02609   0.03293   0.03857   0.04511   0.06045
 Alpha virt. eigenvalues --    0.06759   0.07002   0.07919   0.08073   0.08935

 Mulliken charges:
               1
     1  C    0.674306
     2  O   -0.692514
     3  C   -0.660197
     4  H    0.203065
     5  H    0.203493
     6  H    0.310357
     7  C   -0.673956
     8  H    0.219174
     9  H    0.203056
    10  H    0.218630
    11  O   -0.430285
    12  H    0.297753
    13  H    0.127116
 Sum of Mulliken charges =   0.00000

 Dipole moment (field-independent basis, Debye):
    X=             -2.9902    Y=              0.6009    Z=              0.1010  Tot=              3.0517
 Quadrupole moment (field-independent basis, Debye-Ang):
   XX=            -29.7769   YY=            -32.2613   ZZ=            -32.1149
   XY=             -4.5824   XZ=              0.3117   YZ=             -0.1631

  Exact polarizability:  62.307  -1.842  54.312  -0.185  -0.069  42.248
 Approx polarizability:  76.113  -7.491  75.055  -0.244  -0.125  59.539

                      1                      2                      3
                      A                      A                      A
 Frequencies --     37.0483                44.3651                77.0365
 Red. masses --      2.9911                 1.1632                 1.0790
 Frc consts  --      0.0024                 0.0013                 0.0038
 IR Inten    --      0.2075                31.4603                86.7863

                      4                      5                      6
                      A                      A                      A
 Frequencies --     99.5322               131.8621               170.1508
 Red. masses --      4.1770                 1.1220                 5.3437
 Frc consts  --      0.0244                 0.0115                 0.0912
 IR Inten    --     16.8864                 2.7662                 7.7714

                      7                      8                      9
                      A                      A                      A
 Frequencies --    399.4872               410.3285               496.2027
 Red. masses --      1.6101                 1.3217                 1.9388
 Frc consts  --      0.1514                 0.1311                 0.2813
 IR Inten    --     76.4526                73.1702                 0.1663

                     10                     11                     12
                      A                      A                      A
 Frequencies --    558.7298               592.1874               795.2457
 Red. masses --      3.8959                 1.0553                 3.7450
 Frc consts  --      0.7166                 0.2181                 1.3954
 IR Inten    --     14.4709                67.2937                 1.0984

                     13                     14                     15
                      A                      A                      A
 Frequencies --    893.1586               906.0351              1096.7062
 Red. masses --      1.2231                 1.5291                 1.5226
 Frc consts  --      0.5749                 0.7396                 1.0790
 IR Inten    --      0.2018                 7.7027                 0.1373

                     16                     17                     18
                      A                      A                      A
 Frequencies --   1124.6904              1249.7621              1391.9537
 Red. masses --      1.9815                 2.8074                 1.2877
 Frc consts  --      1.4768                 2.5835                 1.4700
 IR Inten    --      3.5845                65.6818                37.5275

                     19                     20                     21
                      A                      A                      A
 Frequencies --   1400.1104              1461.8115              1465.2236
 Red. masses --      1.2840                 1.0481                 1.0522
 Frc consts  --      1.4830                 1.3195                 1.3310
 IR Inten    --     43.1384                 7.2769                 4.6006

                     22                     23                     24
                      A                      A                      A
 Frequencies --   1474.9088              1491.0860              1654.3645
 Red. masses --      1.0779                 1.0471                 1.0833
 Frc consts  --      1.3815                 1.3717                 1.7468
 IR Inten    --     16.6902                18.0962                94.5860

                     25                     26                     27
                      A                      A                      A
 Frequencies --   1764.3092              3025.7594              3032.4558
 Red. masses --      8.3608                 1.0380                 1.0378
 Frc consts  --     15.3338                 5.5989                 5.6228
 IR Inten    --    220.1364                 0.8712                 8.3395

                     28                     29                     30
                      A                      A                      A
 Frequencies --   3077.5641              3085.6174              3140.0363
 Red. masses --      1.0975                 1.0980                 1.1023
 Frc consts  --      6.1243                 6.1596                 6.4036
 IR Inten    --      1.2827                11.3729                 8.0014

                     31                     32                     33
                      A                      A                      A
 Frequencies --   3148.1349              3612.6653              3871.3988
 Red. masses --      1.1019                 1.0585                 1.0704
 Frc consts  --      6.4345                 8.1397                 9.4521
 IR Inten    --      0.1906               509.8053                82.2349

 - Thermochemistry -
 -------------------
 Temperature   298.150 Kelvin.  Pressure   1.00000 Atm.
 Atom     1 has atomic number  6 and mass  12.00000

 Molecular mass:    76.05243 amu.
 Principal axes and moments of inertia in atomic units:
                           1         2         3
     Eigenvalues --   195.89314 815.71299 989.42397
           X            0.99994  -0.01125   0.00031
           Y            0.01125   0.99993  -0.00190
           Z           -0.00029   0.00191   1.00000
 This molecule is an asymmetric top.
 Rotational symmetry number  1.
 Rotational temperatures (Kelvin)      0.44215     0.10618     0.08754
 Rotational constants (GHZ):           9.21289     2.21247     1.82403
 Zero-point vibrational energy     282198.6 (Joules/Mol)
                                   67.44709 (Kcal/Mol)
 Warning -- explicit consideration of  11 degrees of freedom as
           vibrations may cause significant error
 Vibrational temperatures:     53.30    63.83   110.84   143.20   189.72
          (Kelvin)            244.81   574.77   590.37   713.92   803.89
                              852.02  1144.18  1285.05  1303.58  1577.91
                             1618.18  1798.13  2002.71  2014.44  2103.22
                             2108.13  2122.06  2145.34  2380.26  2538.44
                             4353.39  4363.02  4427.92  4439.51  4517.81
                             4529.46  5197.81  5570.07

 Zero-point correction=                           0.107484 (Hartree/Particle)
 Thermal correction to Energy=                    0.116300
 Thermal correction to Enthalpy=                  0.117245
 Thermal correction to Gibbs Free Energy=         0.073057
 Sum of electronic and zero-point Energies=           -269.610777
 Sum of electronic and thermal Energies=              -269.601960
 Sum of electronic and thermal Enthalpies=            -269.601016
 Sum of electronic and thermal Free Energies=         -269.645203

                     E (Thermal)             CV                S
                      KCal/Mol        Cal/Mol-Kelvin    Cal/Mol-Kelvin
 Total                   72.980             26.978             93.000
 Electronic               0.000              0.000              0.000
 Translational            0.889              2.981             38.902
 Rotational               0.889              2.981             26.561
 Vibrational             71.202             21.016             27.537
 Vibration     1          0.594              1.982              5.411
 Vibration     2          0.595              1.980              5.054
 Vibration     3          0.599              1.964              3.965
 Vibration     4          0.604              1.949              3.463
 Vibration     5          0.612              1.921              2.919
 Vibration     6          0.625              1.879              2.434
 Vibration     7          0.766              1.471              0.965
 Vibration     8          0.774              1.448              0.925
 Vibration     9          0.852              1.258              0.668
 Vibration    10          0.914              1.121              0.526
 Vibration    11          0.950              1.048              0.463

 1\1\GINC-NODE104\Freq\RB3LYP\Aug-CC-pVTZ\C3H8O2\KAESER\30-Sep-2021\0\\
 #N Geom=AllCheck Guess=TCheck SCRF=Check GenChk RB3LYP/Aug-CC-pVTZ Fre
 q\\Title Card Required\\0,1\C,-0.7373160606,-0.0574864685,0.0380494207
 \O,0.0679043479,-0.9670509271,0.0911063381\C,-0.3141002022,1.389855433
 3,-0.0047874245\H,-0.6072365519,1.8180571944,-0.966564983\H,-0.8400570
 18,1.9582831288,0.7647314052\H,0.7599810076,1.4883036333,0.1234056267\
 C,-2.2210131781,-0.3338334225,0.009406513\H,-2.6867019143,0.1753197508
 ,-0.836511867\H,-2.4057277214,-1.4028980388,-0.0491089362\H,-2.6833729

 Normal termination of Gaussian 09 at Thu Sep 30 20:44:27 2021.
