 Gaussian 09, Revision D.01,
 Gaussian 09:  ES64L-G09RevD.01 24-Apr-2013

 ----------------------------------------------------------------------
 # opt freq b3lyp/aug-cc-pvtz EmpiricalDispersion=GD3 geom=connectivity
 ----------------------------------------------------------------------

 -------------------
 Title Card Required
 -------------------
 Symbolic Z-matrix:
 Charge =  0 Multiplicity = 1

 SCF Done:  E(RB3LYP) =  -461.527490648     A.U. after   12 cycles
 SCF Done:  E(RB3LYP) =  -461.527975601     A.U. after   11 cycles
 SCF Done:  E(RB3LYP) =  -461.528155535     A.U. after   10 cycles
 SCF Done:  E(RB3LYP) =  -461.528220794     A.U. after   10 cycles
 SCF Done:  E(RB3LYP) =  -461.528242326     A.U. after   10 cycles
 SCF Done:  E(RB3LYP) =  -461.528255115     A.U. after    9 cycles
 SCF Done:  E(RB3LYP) =  -461.528260804     A.U. after    9 cycles
 SCF Done:  E(RB3LYP) =  -461.528262527     A.U. after    8 cycles
 SCF Done:  E(RB3LYP) =  -461.528263035     A.U. after    8 cycles
 SCF Done:  E(RB3LYP) =  -461.528263236     A.U. after    7 cycles
 SCF Done:  E(RB3LYP) =  -461.528263355     A.U. after    7 cycles
 SCF Done:  E(RB3LYP) =  -461.528263449     A.U. after    7 cycles
 SCF Done:  E(RB3LYP) =  -461.528263537     A.U. after    7 cycles
 SCF Done:  E(RB3LYP) =  -461.528263573     A.U. after    6 cycles
 SCF Done:  E(RB3LYP) =  -461.528263585     A.U. after    6 cycles
 Optimization completed.
    -- Stationary point found.
 Normal termination of Gaussian 09 at Thu Sep 30 23:43:45 2021.

 ----------------------------------------------------------------------
 #N Geom=AllCheck Guess=TCheck SCRF=Check GenChk RB3LYP/Aug-CC-pVTZ Fre
 q
 ----------------------------------------------------------------------

 Structure from the checkpoint file:  "98-86-2.chk"
 -------------------
 Title Card Required
 -------------------
 Charge =  0 Multiplicity = 1

                         Standard orientation:
 ---------------------------------------------------------------------
 Center     Atomic      Atomic             Coordinates (Angstroms)
 Number     Number       Type             X           Y           Z
 ---------------------------------------------------------------------
      1          6           0        2.689085    1.036607   -0.002452
      2          6           0        1.307111    1.175769   -0.000047
      3          6           0        0.481754    0.047438    0.001798
      4          6           0        1.068063   -1.223139    0.001023
      5          6           0        2.446473   -1.361101   -0.001398
      6          6           0        3.260328   -0.230706   -0.003104
      7          1           0        3.318901    1.915666   -0.003849
      8          1           0        0.879202    2.167497    0.000299
      9          1           0        0.422569   -2.089548    0.002254
     10          1           0        2.890203   -2.347347   -0.002023
     11          1           0        4.336679   -0.338516   -0.004987
     12          6           0       -1.007983    0.149443    0.004321
     13          8           0       -1.690902   -0.863415    0.006061
     14          6           0       -1.651306    1.515574    0.004510
     15          1           0       -1.334700    2.083790    0.880820
     16          1           0       -1.341578    2.080545   -0.876364
     17          1           0       -2.732248    1.415256    0.009035
     18          8           0       -4.481683   -0.352931   -0.017075
     19          1           0       -3.569943   -0.692470   -0.005757
     20          1           0       -5.049555   -1.123418    0.060770
 ---------------------------------------------------------------------

 SCF Done:  E(RB3LYP) =  -461.528263585     A.U. after    1 cycles

 The electronic state is 1-A.
 Alpha  occ. eigenvalues --  -19.13459 -19.10340 -10.28125 -10.20355 -10.20287
 Alpha  occ. eigenvalues --  -10.20148 -10.19796 -10.19682 -10.19612 -10.18182
 Alpha  occ. eigenvalues --   -1.06066  -0.98412  -0.88159  -0.79137  -0.77063
 Alpha  occ. eigenvalues --   -0.74508  -0.64798  -0.62601  -0.57218  -0.53076
 Alpha  occ. eigenvalues --   -0.51105  -0.48414  -0.47906  -0.46280  -0.45923
 Alpha  occ. eigenvalues --   -0.44454  -0.43811  -0.40241  -0.39686  -0.37770
 Alpha  occ. eigenvalues --   -0.37355  -0.36616  -0.36211  -0.29229  -0.28050
 Alpha  occ. eigenvalues --   -0.27731  -0.27609
 Alpha virt. eigenvalues --   -0.07970  -0.03348  -0.01779  -0.00461  -0.00032
 Alpha virt. eigenvalues --    0.00936   0.01261   0.01762   0.01941   0.02592
 Alpha virt. eigenvalues --    0.03857   0.04209   0.04433   0.05279   0.05861

 Mulliken charges:
               1
     1  C   -0.597313
     2  C   -0.532284
     3  C    1.513457
     4  C   -0.868602
     5  C   -0.516130
     6  C   -0.275796
     7  H    0.332768
     8  H    0.288998
     9  H    0.379864
    10  H    0.356578
    11  H    0.391921
    12  C    0.498069
    13  O   -0.995368
    14  C   -0.647468
    15  H    0.193585
    16  H    0.194382
    17  H    0.272455
    18  O   -0.440679
    19  H    0.336999
    20  H    0.114565
 Sum of Mulliken charges =   0.00000

 Dipole moment (field-independent basis, Debye):
    X=              3.7665    Y=              0.6964    Z=              0.1334  Tot=              3.8327
 Quadrupole moment (field-independent basis, Debye-Ang):
   XX=            -63.5507   YY=            -53.2349   ZZ=            -63.2217
   XY=              2.8385   XZ=             -0.7537   YZ=             -0.1726

  Exact polarizability: 149.727  -0.407 113.057  -0.150  -0.028  67.525
 Approx polarizability: 211.797   7.905 187.781  -0.266  -0.179 103.751

                      1                      2                      3
                      A                      A                      A
 Frequencies --     25.1243                47.5590                70.3875
 Red. masses --      6.9150                 4.3531                 1.1217
 Frc consts  --      0.0026                 0.0058                 0.0033
 IR Inten    --      3.6020                 0.9331               105.9900

                      4                      5                      6
                      A                      A                      A
 Frequencies --     75.2977               144.3784               153.8718
 Red. masses --      4.1746                 6.2150                 4.4832
 Frc consts  --      0.0139                 0.0763                 0.0625
 IR Inten    --     14.6845                 0.4184                 0.1354

                      7                      8                      9
                      A                      A                      A
 Frequencies --    183.4683               252.0532               386.1654
 Red. masses --      1.0272                 3.6797                 4.6786
 Frc consts  --      0.0204                 0.1377                 0.4111
 IR Inten    --      3.2030                35.3211                 0.4020

                     10                     11                     12
                      A                      A                      A
 Frequencies --    410.7479               412.6503               432.2045
 Red. masses --      1.0955                 2.7895                 3.2194
 Frc consts  --      0.1089                 0.2799                 0.3543
 IR Inten    --    164.0338                 1.5060                 1.4966

                     13                     14                     15
                      A                      A                      A
 Frequencies --    479.0578               600.6387               607.1451
 Red. masses --      4.6774                 1.1159                 2.1291
 Frc consts  --      0.6325                 0.2372                 0.4624
 IR Inten    --      4.3711                40.8274                31.5579

                     16                     17                     18
                      A                      A                      A
 Frequencies --    612.4592               632.8450               708.4959
 Red. masses --      4.4542                 6.3988                 1.8067
 Frc consts  --      0.9844                 1.5099                 0.5343
 IR Inten    --     23.9416                 1.8416                36.0374

                     19                     20                     21
                      A                      A                      A
 Frequencies --    748.0299               783.1760               868.8049
 Red. masses --      5.1777                 1.6909                 1.2496
 Frc consts  --      1.7070                 0.6110                 0.5557
 IR Inten    --      0.3724                35.8468                 0.1406

                     22                     23                     24
                      A                      A                      A
 Frequencies --    960.2476               969.7288              1009.9093
 Red. masses --      1.3629                 2.1850                 1.3804
 Frc consts  --      0.7404                 1.2106                 0.8295
 IR Inten    --      2.1350                38.3340                 0.1858

                     25                     26                     27
                      A                      A                      A
 Frequencies --   1020.9695              1027.3056              1049.9248
 Red. masses --      6.2084                 1.3354                 2.4593
 Frc consts  --      3.8129                 0.8303                 1.5973
 IR Inten    --      1.2050                 0.1242                 4.6228

                     28                     29                     30
                      A                      A                      A
 Frequencies --   1054.6426              1105.0597              1118.2319
 Red. masses --      1.9076                 2.1990                 1.5821
 Frc consts  --      1.2501                 1.5822                 1.1656
 IR Inten    --      1.1190                 0.7105                 5.7029

                     31                     32                     33
                      A                      A                      A
 Frequencies --   1194.1282              1214.9538              1285.9835
 Red. masses --      1.1335                 1.1559                 3.6223
 Frc consts  --      0.9523                 1.0053                 3.5295
 IR Inten    --      0.7571                21.6620               188.9835

                     34                     35                     36
                      A                      A                      A
 Frequencies --   1336.7379              1361.1330              1399.5395
 Red. masses --      3.8763                 1.5635                 1.2707
 Frc consts  --      4.0809                 1.7066                 1.4664
 IR Inten    --     12.8572                 3.2666                41.2013

                     37                     38                     39
                      A                      A                      A
 Frequencies --   1480.9912              1483.1662              1483.9266
 Red. masses --      1.0994                 2.0489                 1.0603
 Frc consts  --      1.4208                 2.6555                 1.3756
 IR Inten    --      7.1649                20.0886                 9.7400

                     40                     41                     42
                      A                      A                      A
 Frequencies --   1528.7468              1618.2200              1638.9411
 Red. masses --      2.1030                 5.0398                 5.0522
 Frc consts  --      2.8958                 7.7757                 7.9957
 IR Inten    --      1.5283                20.5623                41.7537

                     43                     44                     45
                      A                      A                      A
 Frequencies --   1655.7690              1723.9255              3035.5188
 Red. masses --      1.1113                 8.1567                 1.0384
 Frc consts  --      1.7950                14.2824                 5.6373
 IR Inten    --     94.0230               242.4072                 7.9791

                     46                     47                     48
                      A                      A                      A
 Frequencies --   3089.1851              3152.6229              3166.3718
 Red. masses --      1.0985                 1.1012                 1.0861
 Frc consts  --      6.1762                 6.4483                 6.4159
 IR Inten    --      4.6720                 0.5952                 0.0206

                     49                     50                     51
                      A                      A                      A
 Frequencies --   3177.2789              3187.8096              3199.4637
 Red. masses --      1.0892                 1.0931                 1.0926
 Frc consts  --      6.4782                 6.5449                 6.5895
 IR Inten    --      7.6857                13.2113                 8.1055

                     52                     53                     54
                      A                      A                      A
 Frequencies --   3201.8652              3608.3728              3871.8719
 Red. masses --      1.0948                 1.0587                 1.0702
 Frc consts  --      6.6127                 8.1219                 9.4530
 IR Inten    --      5.1042               712.8727                97.6681

 - Thermochemistry -
 -------------------
 Temperature   298.150 Kelvin.  Pressure   1.00000 Atm.
 Atom     1 has atomic number  6 and mass  12.00000

 Molecular mass:   138.06808 amu.
 Principal axes and moments of inertia in atomic units:
                           1         2         3
     Eigenvalues --   516.332862948.583143453.73413
           X            0.99999  -0.00320  -0.00042
           Y            0.00320   0.99999  -0.00030
           Z            0.00042   0.00029   1.00000
 This molecule is an asymmetric top.
 Rotational symmetry number  1.
 Warning -- assumption of classical behavior for rotation
           may cause significant error
 Rotational temperatures (Kelvin)      0.16775     0.02937     0.02508
 Rotational constants (GHZ):           3.49531     0.61207     0.52255
 Zero-point vibrational energy     424956.0 (Joules/Mol)
                                  101.56693 (Kcal/Mol)
 Warning -- explicit consideration of  16 degrees of freedom as
           vibrations may cause significant error
 Vibrational temperatures:     36.15    68.43   101.27   108.34   207.73
          (Kelvin)            221.39   263.97   362.65   555.61   590.97
                              593.71   621.85   689.26   864.18   873.55
                              881.19   910.52  1019.37  1076.25  1126.81
                             1250.01  1381.58  1395.22  1453.03  1468.95
                             1478.06  1510.61  1517.39  1589.93  1608.88
                             1718.08  1748.05  1850.24  1923.27  1958.36
                             2013.62  2130.81  2133.94  2135.04  2199.52
                             2328.25  2358.07  2382.28  2480.34  4367.43
                             4444.64  4535.92  4555.70  4571.39  4586.54
                             4603.31  4606.76  5191.64  5570.75

 Zero-point correction=                           0.161857 (Hartree/Particle)
 Thermal correction to Energy=                    0.173149
 Thermal correction to Enthalpy=                  0.174093
 Thermal correction to Gibbs Free Energy=         0.123062
 Sum of electronic and zero-point Energies=           -461.366406
 Sum of electronic and thermal Energies=              -461.355115
 Sum of electronic and thermal Enthalpies=            -461.354171
 Sum of electronic and thermal Free Energies=         -461.405201

                     E (Thermal)             CV                S
                      KCal/Mol        Cal/Mol-Kelvin    Cal/Mol-Kelvin
 Total                  108.652             39.652            107.402
 Electronic               0.000              0.000              0.000
 Translational            0.889              2.981             40.680
 Rotational               0.889              2.981             30.043
 Vibrational            106.875             33.690             36.680
 Vibration     1          0.593              1.985              6.181
 Vibration     2          0.595              1.979              4.916
 Vibration     3          0.598              1.968              4.142
 Vibration     4          0.599              1.965              4.010
 Vibration     5          0.616              1.909              2.745
 Vibration     6          0.619              1.898              2.624
 Vibration     7          0.631              1.862              2.293
 Vibration     8          0.664              1.759              1.716
 Vibration     9          0.755              1.500              1.015
 Vibration    10          0.775              1.447              0.924
 Vibration    11          0.776              1.443              0.917
 Vibration    12          0.793              1.400              0.851
 Vibration    13          0.835              1.297              0.713
 Vibration    14          0.959              1.030              0.449
 Vibration    15          0.966              1.017              0.438
 Vibration    16          0.972              1.005              0.429

 Normal termination of Gaussian 09 at Fri Oct  1 06:01:00 2021.
