 Gaussian 09, Revision D.01,
 Gaussian 09:  ES64L-G09RevD.01 24-Apr-2013

 ----------------------------------------------------------------------
 # opt freq b3lyp/aug-cc-pvtz EmpiricalDispersion=GD3 geom=connectivity
 ----------------------------------------------------------------------

 -------------------
 Title Card Required
 -------------------
 Symbolic Z-matrix:
 Charge =  0 Multiplicity = 1

 SCF Done:  E(RB3LYP) =  -462.734436783     A.U. after   12 cycles
 SCF Done:  E(RB3LYP) =  -462.734562318     A.U. after   10 cycles
 SCF Done:  E(RB3LYP) =  -462.734744772     A.U. after   10 cycles
 SCF Done:  E(RB3LYP) =  -462.734782587     A.U. after    9 cycles
 SCF Done:  E(RB3LYP) =  -462.734805920     A.U. after    9 cycles
 SCF Done:  E(RB3LYP) =  -462.734825591     A.U. after    9 cycles
 SCF Done:  E(RB3LYP) =  -462.734840848     A.U. after    9 cycles
 SCF Done:  E(RB3LYP) =  -462.734857919     A.U. after    9 cycles
 SCF Done:  E(RB3LYP) =  -462.734874527     A.U. after    9 cycles
 SCF Done:  E(RB3LYP) =  -462.734887627     A.U. after    9 cycles
 SCF Done:  E(RB3LYP) =  -462.734894972     A.U. after    9 cycles
 SCF Done:  E(RB3LYP) =  -462.734895424     A.U. after    8 cycles
 SCF Done:  E(RB3LYP) =  -462.734894488     A.U. after    8 cycles
 SCF Done:  E(RB3LYP) =  -462.734893879     A.U. after    7 cycles
 SCF Done:  E(RB3LYP) =  -462.734893866     A.U. after    7 cycles
 SCF Done:  E(RB3LYP) =  -462.734893914     A.U. after    7 cycles
 SCF Done:  E(RB3LYP) =  -462.734894228     A.U. after    7 cycles
 SCF Done:  E(RB3LYP) =  -462.734894510     A.U. after    7 cycles
 Optimization completed.
    -- Stationary point found.
 Normal termination of Gaussian 09 at Fri Oct  1 06:32:50 2021.

 ----------------------------------------------------------------------
 #N Geom=AllCheck Guess=TCheck SCRF=Check GenChk RB3LYP/Aug-CC-pVTZ Fre
 q
 ----------------------------------------------------------------------

 Structure from the checkpoint file:  "98-85-1.chk"
 -------------------
 Title Card Required
 -------------------
 Charge =  0 Multiplicity = 1

                         Standard orientation:
 ---------------------------------------------------------------------
 Center     Atomic      Atomic             Coordinates (Angstroms)
 Number     Number       Type             X           Y           Z
 ---------------------------------------------------------------------
      1          6           0       -2.161653   -0.272534   -1.066235
      2          6           0       -0.782096   -0.304000   -1.256508
      3          6           0        0.087302   -0.365640   -0.168903
      4          6           0       -0.451093   -0.386136    1.119685
      5          6           0       -1.825746   -0.353628    1.313319
      6          6           0       -2.687045   -0.297694    0.219788
      7          1           0       -2.822173   -0.222638   -1.921629
      8          1           0       -0.377491   -0.274246   -2.260822
      9          1           0        0.220950   -0.410876    1.966567
     10          1           0       -2.228165   -0.369952    2.317612
     11          1           0       -3.757685   -0.269998    0.370976
     12          6           0        1.592755   -0.399976   -0.371117
     13          8           0        2.265854    0.492596    0.512436
     14          1           0        1.907518    1.380916    0.364707
     15          6           0        2.166425   -1.788669   -0.120303
     16          1           0        1.972602   -2.091117    0.909127
     17          1           0        1.713027   -2.520025   -0.789177
     18          1           0        3.243948   -1.777168   -0.281338
     19          8           0        0.557542    2.768656   -0.196639
     20          1           0        0.297509    3.429395    0.452110
     21          1           0       -0.190462    2.161864   -0.262165
     22          1           0        1.800158   -0.116511   -1.410711
 ---------------------------------------------------------------------

 SCF Done:  E(RB3LYP) =  -462.734894510     A.U. after    1 cycles

 The electronic state is 1-A.
 Alpha  occ. eigenvalues --  -19.15185 -19.11428 -10.22700 -10.18905 -10.18753
 Alpha  occ. eigenvalues --  -10.18662 -10.18578 -10.18555 -10.18221 -10.16033
 Alpha  occ. eigenvalues --   -1.03421  -1.01233  -0.86911  -0.78260  -0.75743
 Alpha  occ. eigenvalues --   -0.73033  -0.63491  -0.61722  -0.58248  -0.55374
 Alpha  occ. eigenvalues --   -0.53121  -0.50770  -0.47663  -0.45395  -0.44093
 Alpha  occ. eigenvalues --   -0.43021  -0.41834  -0.41542  -0.38759  -0.38124
 Alpha  occ. eigenvalues --   -0.37407  -0.36277  -0.35189  -0.34158  -0.31851
 Alpha  occ. eigenvalues --   -0.27962  -0.26821  -0.25546
 Alpha virt. eigenvalues --   -0.02586  -0.02488  -0.02263  -0.00545   0.00058
 Alpha virt. eigenvalues --    0.00418   0.01955   0.02088   0.02500   0.03260
 Alpha virt. eigenvalues --    0.03873   0.04385   0.04641   0.05126   0.05601

 Mulliken charges:
               1
     1  C   -0.497177
     2  C   -0.877876
     3  C    1.138608
     4  C   -0.745055
     5  C   -0.558968
     6  C   -0.198502
     7  H    0.323136
     8  H    0.231627
     9  H    0.314620
    10  H    0.350324
    11  H    0.455126
    12  C    0.744968
    13  O   -0.814337
    14  H    0.226980
    15  C   -0.866767
    16  H    0.228289
    17  H    0.175057
    18  H    0.162773
    19  O   -0.448206
    20  H    0.114125
    21  H    0.301225
    22  H    0.240029
 Sum of Mulliken charges =   0.00000

 Dipole moment (field-independent basis, Debye):
    X=             -2.5730    Y=              0.5476    Z=             -0.0105  Tot=              2.6306
 Quadrupole moment (field-independent basis, Debye-Ang):
   XX=            -64.4001   YY=            -59.2611   ZZ=            -58.4951
   XY=             -3.4987   XZ=             -2.0901   YZ=              3.7043

  Exact polarizability: 131.748  -3.430  88.061  -0.476   0.159 108.019
 Approx polarizability: 191.013  -2.274 122.121   0.637  -0.022 182.875

                      1                      2                      3
                      A                      A                      A
 Frequencies --     29.4686                45.7264                84.6709
 Red. masses --      3.8543                 4.1704                 3.7833
 Frc consts  --      0.0020                 0.0051                 0.0160
 IR Inten    --      0.8289                 4.8743                 1.7247

                      4                      5                      6
                      A                      A                      A
 Frequencies --    140.7711               146.3745               153.4039
 Red. masses --      2.0784                 3.5880                 1.5796
 Frc consts  --      0.0243                 0.0453                 0.0219
 IR Inten    --     42.2388                13.6449                33.5671

                      7                      8                      9
                      A                      A                      A
 Frequencies --    213.2960               244.6085               258.6616
 Red. masses --      2.4040                 1.1735                 1.2848
 Frc consts  --      0.0644                 0.0414                 0.0506
 IR Inten    --      4.9692               109.8368                 3.2863

                     10                     11                     12
                      A                      A                      A
 Frequencies --    312.4805               330.9997               379.6859
 Red. masses --      3.1077                 1.4755                 2.0970
 Frc consts  --      0.1788                 0.0952                 0.1781
 IR Inten    --      4.2321                49.0402                31.6200

                     13                     14                     15
                      A                      A                      A
 Frequencies --    417.2650               491.3117               560.7038
 Red. masses --      2.8633                 3.3965                 2.9414
 Frc consts  --      0.2937                 0.4831                 0.5448
 IR Inten    --      0.3994                 4.2695                18.0816

                     16                     17                     18
                      A                      A                      A
 Frequencies --    613.8780               630.7018               636.1707
 Red. masses --      1.7216                 2.1379                 3.3767
 Frc consts  --      0.3823                 0.5011                 0.8052
 IR Inten    --     36.9917                66.4000                30.3883

                     19                     20                     21
                      A                      A                      A
 Frequencies --    724.6230               778.1010               789.2942
 Red. masses --      1.6513                 3.2160                 2.0534
 Frc consts  --      0.5109                 1.1472                 0.7537
 IR Inten    --     43.7319                 2.7037                25.4894

                     22                     23                     24
                      A                      A                      A
 Frequencies --    871.8102               919.0763               945.1242
 Red. masses --      1.2474                 2.2408                 1.4424
 Frc consts  --      0.5586                 1.1152                 0.7591
 IR Inten    --      0.2556                12.6389                 7.1900

                     25                     26                     27
                      A                      A                      A
 Frequencies --   1002.2765              1014.4769              1019.4264
 Red. masses --      1.3777                 3.0049                 1.3335
 Frc consts  --      0.8154                 1.8221                 0.8165
 IR Inten    --      0.0943                16.2279                 0.4760

                     28                     29                     30
                      A                      A                      A
 Frequencies --   1026.7705              1051.6828              1080.3974
 Red. masses --      3.2704                 2.1720                 1.8642
 Frc consts  --      2.0314                 1.4154                 1.2821
 IR Inten    --     13.1297                 6.4332                12.5317

                     31                     32                     33
                      A                      A                      A
 Frequencies --   1104.1979              1133.7899              1189.6236
 Red. masses --      1.9123                 1.9694                 1.1384
 Frc consts  --      1.3738                 1.4916                 0.9492
 IR Inten    --     34.5485                12.9521                 0.1350

                     34                     35                     36
                      A                      A                      A
 Frequencies --   1207.1693              1219.9930              1306.5976
 Red. masses --      1.1741                 2.4602                 2.2770
 Frc consts  --      1.0081                 2.1574                 2.2904
 IR Inten    --      0.7304                 4.6626                 3.9445

                     37                     38                     39
                      A                      A                      A
 Frequencies --   1325.1895              1352.4469              1393.5045
 Red. masses --      1.2429                 1.8872                 1.2899
 Frc consts  --      1.2860                 2.0339                 1.4758
 IR Inten    --     35.9412                 4.1764                 4.7593

                     40                     41                     42
                      A                      A                      A
 Frequencies --   1404.4492              1439.7403              1484.2739
 Red. masses --      1.2208                 1.3876                 1.2001
 Frc consts  --      1.4187                 1.6947                 1.5577
 IR Inten    --     13.0487                45.2245                 0.2918

                     43                     44                     45
                      A                      A                      A
 Frequencies --   1488.4897              1498.9080              1527.7481
 Red. masses --      1.6277                 1.0695                 2.1453
 Frc consts  --      2.1248                 1.4157                 2.9501
 IR Inten    --     15.6803                 2.3888                 8.4073

                     46                     47                     48
                      A                      A                      A
 Frequencies --   1621.4757              1626.3062              1641.4268
 Red. masses --      3.4928                 1.2132                 5.2642
 Frc consts  --      5.4105                 1.8906                 8.3565
 IR Inten    --      4.6257                30.2494                 2.1774

                     49                     50                     51
                      A                      A                      A
 Frequencies --   2970.6643              3034.3453              3104.1590
 Red. masses --      1.0840                 1.0336                 1.1022
 Frc consts  --      5.6360                 5.6070                 6.2576
 IR Inten    --     38.3018                17.5968                21.8245

                     52                     53                     54
                      A                      A                      A
 Frequencies --   3107.7977              3154.1110              3163.0131
 Red. masses --      1.1030                 1.0868                 1.0869
 Frc consts  --      6.2766                 6.3703                 6.4071
 IR Inten    --     24.0087                 5.1037                 0.2161

                     55                     56                     57
                      A                      A                      A
 Frequencies --   3173.2565              3183.3656              3190.3948
 Red. masses --      1.0907                 1.0929                 1.0971
 Frc consts  --      6.4710                 6.5255                 6.5797
 IR Inten    --     14.3284                15.3601                11.5001

                     58                     59                     60
                      A                      A                      A
 Frequencies --   3675.1986              3760.1539              3874.3723
 Red. masses --      1.0664                 1.0480                 1.0794
 Frc consts  --      8.4867                 8.7298                 9.5463
 IR Inten    --    217.6322                78.4148               118.2242

 - Thermochemistry -
 -------------------
 Temperature   298.150 Kelvin.  Pressure   1.00000 Atm.
 Atom     1 has atomic number  6 and mass  12.00000

 Molecular mass:   140.08373 amu.
 Principal axes and moments of inertia in atomic units:
                           1         2         3
     Eigenvalues --  1091.161951845.958152236.20175
           X            0.99915  -0.04071  -0.00652
           Y            0.04080   0.99907   0.01431
           Z            0.00593  -0.01456   0.99988
 This molecule is an asymmetric top.
 Rotational symmetry number  1.
 Warning -- assumption of classical behavior for rotation
           may cause significant error
 Rotational temperatures (Kelvin)      0.07938     0.04692     0.03873
 Rotational constants (GHZ):           1.65396     0.97767     0.80706
 Zero-point vibrational energy     486099.0 (Joules/Mol)
                                  116.18044 (Kcal/Mol)
 Warning -- explicit consideration of  16 degrees of freedom as
           vibrations may cause significant error
 Vibrational temperatures:     42.40    65.79   121.82   202.54   210.60
          (Kelvin)            220.71   306.89   351.94   372.16   449.59
                              476.23   546.28   600.35   706.89   806.73
                              883.23   907.44   915.31  1042.57  1119.51
                             1135.62  1254.34  1322.34  1359.82  1442.05
                             1459.60  1466.73  1477.29  1513.14  1554.45
                             1588.69  1631.27  1711.60  1736.85  1755.30
                             1879.90  1906.65  1945.87  2004.94  2020.69
                             2071.46  2135.54  2141.60  2156.59  2198.09
                             2332.94  2339.89  2361.64  4274.12  4365.74
                             4466.19  4471.42  4538.06  4550.86  4565.60
                             4580.15  4590.26  5287.78  5410.02  5574.35

 Zero-point correction=                           0.185145 (Hartree/Particle)
 Thermal correction to Energy=                    0.196978
 Thermal correction to Enthalpy=                  0.197922
 Thermal correction to Gibbs Free Energy=         0.146674
 Sum of electronic and zero-point Energies=           -462.549749
 Sum of electronic and thermal Energies=              -462.537917
 Sum of electronic and thermal Enthalpies=            -462.536973
 Sum of electronic and thermal Free Energies=         -462.588221

                     E (Thermal)             CV                S
                      KCal/Mol        Cal/Mol-Kelvin    Cal/Mol-Kelvin
 Total                  123.605             42.408            107.860
 Electronic               0.000              0.000              0.000
 Translational            0.889              2.981             40.723
 Rotational               0.889              2.981             29.889
 Vibrational            121.828             36.446             37.248
 Vibration     1          0.593              1.984              5.865
 Vibration     2          0.595              1.979              4.994
 Vibration     3          0.601              1.960              3.780
 Vibration     4          0.615              1.913              2.793
 Vibration     5          0.617              1.907              2.719
 Vibration     6          0.619              1.899              2.630
 Vibration     7          0.644              1.821              2.015
 Vibration     8          0.660              1.772              1.769
 Vibration     9          0.667              1.748              1.671
 Vibration    10          0.701              1.650              1.349
 Vibration    11          0.713              1.614              1.255
 Vibration    12          0.750              1.513              1.040
 Vibration    13          0.780              1.433              0.901
 Vibration    14          0.847              1.269              0.680
 Vibration    15          0.916              1.116              0.522
 Vibration    16          0.973              1.003              0.426

 Optimization completed.
    -- Stationary point found.
 Normal termination of Gaussian 09 at Fri Oct  1 13:05:41 2021.
