 Gaussian 09, Revision D.01,
 Gaussian 09:  ES64L-G09RevD.01 24-Apr-2013

 ----------------------------------------------------
 # opt freq b3lyp/aug-cc-pvtz EmpiricalDispersion=GD3
 ----------------------------------------------------

 -------------------
 Title Card Required
 -------------------
 Symbolic Z-matrix:
 Charge =  0 Multiplicity = 1

 SCF Done:  E(RB3LYP) =  -76.4661446365     A.U. after    8 cycles
 SCF Done:  E(RB3LYP) =  -76.4662040531     A.U. after    7 cycles
 SCF Done:  E(RB3LYP) =  -76.4662049576     A.U. after    5 cycles
 Optimization completed.
    -- Stationary point found.
 Normal termination of Gaussian 09 at Wed Nov 17 12:14:52 2021.

 ----------------------------------------------------------------------
 #N Geom=AllCheck Guess=TCheck SCRF=Check GenChk RB3LYP/Aug-CC-pVTZ Fre
 q
 ----------------------------------------------------------------------

 Structure from the checkpoint file:  "h2o.chk"
 -------------------
 Title Card Required
 -------------------
 Charge =  0 Multiplicity = 1

                         Standard orientation:
 ---------------------------------------------------------------------
 Center     Atomic      Atomic             Coordinates (Angstroms)
 Number     Number       Type             X           Y           Z
 ---------------------------------------------------------------------
      1          8           0        0.000000    0.000000    0.116983
      2          1           0        0.000000    0.763559   -0.467934
      3          1           0        0.000000   -0.763559   -0.467934
 ---------------------------------------------------------------------

 SCF Done:  E(RB3LYP) =  -76.4662049576     A.U. after    1 cycles

 The electronic state is 1-A1.
 Alpha  occ. eigenvalues --  -19.14045  -1.02108  -0.54069  -0.39895  -0.32412
 Alpha virt. eigenvalues --   -0.02506   0.01919   0.07569   0.09539   0.10263
 Alpha virt. eigenvalues --    0.11483   0.15089   0.17009   0.19138   0.21995
 Alpha virt. eigenvalues --    0.22421   0.30705   0.32998   0.34771   0.47153

 Mulliken charges:
               1
     1  O   -0.354708
     2  H    0.177354
     3  H    0.177354
 Sum of Mulliken charges =   0.00000

 Dipole moment (field-independent basis, Debye):
    X=              0.0000    Y=              0.0000    Z=             -1.8471  Tot=              1.8471
 Quadrupole moment (field-independent basis, Debye-Ang):
   XX=             -7.8031   YY=             -4.4684   ZZ=             -6.5073
   XY=              0.0000   XZ=              0.0000   YZ=              0.0000

  Exact polarizability:   9.409   0.000  10.269   0.000   0.000   9.743
 Approx polarizability:  10.257   0.000  12.894   0.000   0.000  12.048

                      1                      2                      3
                     A1                     A1                     B2
 Frequencies --   1626.5906              3795.9961              3898.9973
 Red. masses --      1.0834                 1.0445                 1.0824
 Frc consts  --      1.6889                 8.8676                 9.6953
 IR Inten    --     75.7787                 4.6473                63.0555

 - Thermochemistry -
 -------------------
 Temperature   298.150 Kelvin.  Pressure   1.00000 Atm.
 Atom     1 has atomic number  8 and mass  15.99491

 Molecular mass:    18.01056 amu.
 Principal axes and moments of inertia in atomic units:
                           1         2         3
     Eigenvalues --     2.18704   4.19661   6.38364
           X            0.00000   0.00000   1.00000
           Y            1.00000   0.00000   0.00000
           Z            0.00000   1.00000   0.00000
 This molecule is an asymmetric top.
 Rotational symmetry number  2.
 Rotational temperatures (Kelvin)     39.60330    20.63900    13.56808
 Rotational constants (GHZ):         825.19977   430.04754   282.71332
 Zero-point vibrational energy      55755.5 (Joules/Mol)
                                   13.32587 (Kcal/Mol)
 Vibrational temperatures:   2340.30  5461.58  5609.78
          (Kelvin)

 Zero-point correction=                           0.021236 (Hartree/Particle)
 Thermal correction to Energy=                    0.024072
 Thermal correction to Enthalpy=                  0.025016
 Thermal correction to Gibbs Free Energy=         0.003594
 Sum of electronic and zero-point Energies=            -76.444969
 Sum of electronic and thermal Energies=               -76.442133
 Sum of electronic and thermal Enthalpies=             -76.441189
 Sum of electronic and thermal Free Energies=          -76.462611

                     E (Thermal)             CV                S
                      KCal/Mol        Cal/Mol-Kelvin    Cal/Mol-Kelvin
 Total                   15.105              6.009             45.085
 Electronic               0.000              0.000              0.000
 Translational            0.889              2.981             34.608
 Rotational               0.889              2.981             10.470
 Vibrational             13.328              0.048              0.007

 Optimization completed.
    -- Stationary point found.
 Normal termination of Gaussian 09 at Wed Nov 17 12:15:01 2021.
